V -t * -v 1.0a5 -a 0
A -t * -n 1 -p 0 -o 0x7fffffff -c 30 -a 1
A -t * -h 1 -m 1073741823 -s 0
n -t * -a 0 -s 0 -S UP -v circle -c black -i black
n -t * -a 1 -s 1 -S UP -v circle -c black -i black
l -t * -s 0 -d 1 -S UP -r 4000000 -D 0.01 -c black
+ -t 2 -s 0 -d 1 -p cbr -e 1500 -c 0 -i 0 -a 0 -x {0.0 1.0 0 ------- null}
- -t 2 -s 0 -d 1 -p cbr -e 1500 -c 0 -i 0 -a 0 -x {0.0 1.0 0 ------- null}
h -t 2 -s 0 -d 1 -p cbr -e 1500 -c 0 -i 0 -a 0 -x {0.0 1.0 -1 ------- null}
+ -t 2.01 -s 0 -d 1 -p cbr -e 1500 -c 0 -i 1 -a 0 -x {0.0 1.0 1 ------- null}
- -t 2.01 -s 0 -d 1 -p cbr -e 1500 -c 0 -i 1 -a 0 -x {0.0 1.0 1 ------- null}
h -t 2.01 -s 0 -d 1 -p cbr -e 1500 -c 0 -i 1 -a 0 -x {0.0 1.0 -1 ------- null}
r -t 2.013 -s 0 -d 1 -p cbr -e 1500 -c 0 -i 0 -a 0 -x {0.0 1.0 0 ------- null}
+ -t 2.02 -s 0 -d 1 -p cbr -e 1500 -c 0 -i 2 -a 0 -x {0.0 1.0 2 ------- null}
- -t 2.02 -s 0 -d 1 -p cbr -e 1500 -c 0 -i 2 -a 0 -x {0.0 1.0 2 ------- null}
h -t 2.02 -s 0 -d 1 -p cbr -e 1500 -c 0 -i 2 -a 0 -x {0.0 1.0 -1 ------- null}
r -t 2.023 -s 0 -d 1 -p cbr -e 1500 -c 0 -i 1 -a 0 -x {0.0 1.0 1 ------- null}
+ -t 2.03 -s 0 -d 1 -p cbr -e 1500 -c 0 -i 3 -a 0 -x {0.0 1.0 3 ------- null}
- -t 2.03 -s 0 -d 1 -p cbr -e 1500 -c 0 -i 3 -a 0 -x {0.0 1.0 3 ------- null}
h -t 2.03 -s 0 -d 1 -p cbr -e 1500 -c 0 -i 3 -a 0 -x {0.0 1.0 -1 ------- null}
r -t 2.033 -s 0 -d 1 -p cbr -e 1500 -c 0 -i 2 -a 0 -x {0.0 1.0 2 ------- null}
+ -t 2.04 -s 0 -d 1 -p cbr -e 1500 -c 0 -i 4 -a 0 -x {0.0 1.0 4 ------- null}
- -t 2.04 -s 0 -d 1 -p cbr -e 1500 -c 0 -i 4 -a 0 -x {0.0 1.0 4 ------- null}
h -t 2.04 -s 0 -d 1 -p cbr -e 1500 -c 0 -i 4 -a 0 -x {0.0 1.0 -1 ------- null}
r -t 2.043 -s 0 -d 1 -p cbr -e 1500 -c 0 -i 3 -a 0 -x {0.0 1.0 3 ------- null}
+ -t 2.05 -s 0 -d 1 -p cbr -e 1500 -c 0 -i 5 -a 0 -x {0.0 1.0 5 ------- null}
- -t 2.05 -s 0 -d 1 -p cbr -e 1500 -c 0 -i 5 -a 0 -x {0.0 1.0 5 ------- null}
h -t 2.05 -s 0 -d 1 -p cbr -e 1500 -c 0 -i 5 -a 0 -x {0.0 1.0 -1 ------- null}
r -t 2.053 -s 0 -d 1 -p cbr -e 1500 -c 0 -i 4 -a 0 -x {0.0 1.0 4 ------- null}
+ -t 2.06 -s 0 -d 1 -p cbr -e 1500 -c 0 -i 6 -a 0 -x {0.0 1.0 6 ------- null}
- -t 2.06 -s 0 -d 1 -p cbr -e 1500 -c 0 -i 6 -a 0 -x {0.0 1.0 6 ------- null}
h -t 2.06 -s 0 -d 1 -p cbr -e 1500 -c 0 -i 6 -a 0 -x {0.0 1.0 -1 ------- null}
r -t 2.063 -s 0 -d 1 -p cbr -e 1500 -c 0 -i 5 -a 0 -x {0.0 1.0 5 ------- null}
+ -t 2.07 -s 0 -d 1 -p cbr -e 1500 -c 0 -i 7 -a 0 -x {0.0 1.0 7 ------- null}
- -t 2.07 -s 0 -d 1 -p cbr -e 1500 -c 0 -i 7 -a 0 -x {0.0 1.0 7 ------- null}
h -t 2.07 -s 0 -d 1 -p cbr -e 1500 -c 0 -i 7 -a 0 -x {0.0 1.0 -1 ------- null}
r -t 2.073 -s 0 -d 1 -p cbr -e 1500 -c 0 -i 6 -a 0 -x {0.0 1.0 6 ------- null}
+ -t 2.08 -s 0 -d 1 -p cbr -e 1500 -c 0 -i 8 -a 0 -x {0.0 1.0 8 ------- null}
- -t 2.08 -s 0 -d 1 -p cbr -e 1500 -c 0 -i 8 -a 0 -x {0.0 1.0 8 ------- null}
h -t 2.08 -s 0 -d 1 -p cbr -e 1500 -c 0 -i 8 -a 0 -x {0.0 1.0 -1 ------- null}
r -t 2.083 -s 0 -d 1 -p cbr -e 1500 -c 0 -i 7 -a 0 -x {0.0 1.0 7 ------- null}
+ -t 2.09 -s 0 -d 1 -p cbr -e 1500 -c 0 -i 9 -a 0 -x {0.0 1.0 9 ------- null}
- -t 2.09 -s 0 -d 1 -p cbr -e 1500 -c 0 -i 9 -a 0 -x {0.0 1.0 9 ------- null}
h -t 2.09 -s 0 -d 1 -p cbr -e 1500 -c 0 -i 9 -a 0 -x {0.0 1.0 -1 ------- null}
r -t 2.093 -s 0 -d 1 -p cbr -e 1500 -c 0 -i 8 -a 0 -x {0.0 1.0 8 ------- null}
+ -t 2.1 -s 0 -d 1 -p cbr -e 1500 -c 0 -i 10 -a 0 -x {0.0 1.0 10 ------- null}
- -t 2.1 -s 0 -d 1 -p cbr -e 1500 -c 0 -i 10 -a 0 -x {0.0 1.0 10 ------- null}
h -t 2.1 -s 0 -d 1 -p cbr -e 1500 -c 0 -i 10 -a 0 -x {0.0 1.0 -1 ------- null}
r -t 2.103 -s 0 -d 1 -p cbr -e 1500 -c 0 -i 9 -a 0 -x {0.0 1.0 9 ------- null}
+ -t 2.11 -s 0 -d 1 -p cbr -e 1500 -c 0 -i 11 -a 0 -x {0.0 1.0 11 ------- null}
- -t 2.11 -s 0 -d 1 -p cbr -e 1500 -c 0 -i 11 -a 0 -x {0.0 1.0 11 ------- null}
h -t 2.11 -s 0 -d 1 -p cbr -e 1500 -c 0 -i 11 -a 0 -x {0.0 1.0 -1 ------- null}
r -t 2.113 -s 0 -d 1 -p cbr -e 1500 -c 0 -i 10 -a 0 -x {0.0 1.0 10 ------- null}
+ -t 2.12 -s 0 -d 1 -p cbr -e 1500 -c 0 -i 12 -a 0 -x {0.0 1.0 12 ------- null}
- -t 2.12 -s 0 -d 1 -p cbr -e 1500 -c 0 -i 12 -a 0 -x {0.0 1.0 12 ------- null}
h -t 2.12 -s 0 -d 1 -p cbr -e 1500 -c 0 -i 12 -a 0 -x {0.0 1.0 -1 ------- null}
r -t 2.123 -s 0 -d 1 -p cbr -e 1500 -c 0 -i 11 -a 0 -x {0.0 1.0 11 ------- null}
+ -t 2.13 -s 0 -d 1 -p cbr -e 1500 -c 0 -i 13 -a 0 -x {0.0 1.0 13 ------- null}
- -t 2.13 -s 0 -d 1 -p cbr -e 1500 -c 0 -i 13 -a 0 -x {0.0 1.0 13 ------- null}
h -t 2.13 -s 0 -d 1 -p cbr -e 1500 -c 0 -i 13 -a 0 -x {0.0 1.0 -1 ------- null}
r -t 2.133 -s 0 -d 1 -p cbr -e 1500 -c 0 -i 12 -a 0 -x {0.0 1.0 12 ------- null}
+ -t 2.14 -s 0 -d 1 -p cbr -e 1500 -c 0 -i 14 -a 0 -x {0.0 1.0 14 ------- null}
- -t 2.14 -s 0 -d 1 -p cbr -e 1500 -c 0 -i 14 -a 0 -x {0.0 1.0 14 ------- null}
h -t 2.14 -s 0 -d 1 -p cbr -e 1500 -c 0 -i 14 -a 0 -x {0.0 1.0 -1 ------- null}
r -t 2.143 -s 0 -d 1 -p cbr -e 1500 -c 0 -i 13 -a 0 -x {0.0 1.0 13 ------- null}
+ -t 2.15 -s 0 -d 1 -p cbr -e 1500 -c 0 -i 15 -a 0 -x {0.0 1.0 15 ------- null}
- -t 2.15 -s 0 -d 1 -p cbr -e 1500 -c 0 -i 15 -a 0 -x {0.0 1.0 15 ------- null}
h -t 2.15 -s 0 -d 1 -p cbr -e 1500 -c 0 -i 15 -a 0 -x {0.0 1.0 -1 ------- null}
r -t 2.153 -s 0 -d 1 -p cbr -e 1500 -c 0 -i 14 -a 0 -x {0.0 1.0 14 ------- null}
+ -t 2.16 -s 0 -d 1 -p cbr -e 1500 -c 0 -i 16 -a 0 -x {0.0 1.0 16 ------- null}
- -t 2.16 -s 0 -d 1 -p cbr -e 1500 -c 0 -i 16 -a 0 -x {0.0 1.0 16 ------- null}
h -t 2.16 -s 0 -d 1 -p cbr -e 1500 -c 0 -i 16 -a 0 -x {0.0 1.0 -1 ------- null}
r -t 2.163 -s 0 -d 1 -p cbr -e 1500 -c 0 -i 15 -a 0 -x {0.0 1.0 15 ------- null}
+ -t 2.17 -s 0 -d 1 -p cbr -e 1500 -c 0 -i 17 -a 0 -x {0.0 1.0 17 ------- null}
- -t 2.17 -s 0 -d 1 -p cbr -e 1500 -c 0 -i 17 -a 0 -x {0.0 1.0 17 ------- null}
h -t 2.17 -s 0 -d 1 -p cbr -e 1500 -c 0 -i 17 -a 0 -x {0.0 1.0 -1 ------- null}
r -t 2.173 -s 0 -d 1 -p cbr -e 1500 -c 0 -i 16 -a 0 -x {0.0 1.0 16 ------- null}
+ -t 2.18 -s 0 -d 1 -p cbr -e 1500 -c 0 -i 18 -a 0 -x {0.0 1.0 18 ------- null}
- -t 2.18 -s 0 -d 1 -p cbr -e 1500 -c 0 -i 18 -a 0 -x {0.0 1.0 18 ------- null}
h -t 2.18 -s 0 -d 1 -p cbr -e 1500 -c 0 -i 18 -a 0 -x {0.0 1.0 -1 ------- null}
r -t 2.183 -s 0 -d 1 -p cbr -e 1500 -c 0 -i 17 -a 0 -x {0.0 1.0 17 ------- null}
+ -t 2.19 -s 0 -d 1 -p cbr -e 1500 -c 0 -i 19 -a 0 -x {0.0 1.0 19 ------- null}
- -t 2.19 -s 0 -d 1 -p cbr -e 1500 -c 0 -i 19 -a 0 -x {0.0 1.0 19 ------- null}
h -t 2.19 -s 0 -d 1 -p cbr -e 1500 -c 0 -i 19 -a 0 -x {0.0 1.0 -1 ------- null}
r -t 2.193 -s 0 -d 1 -p cbr -e 1500 -c 0 -i 18 -a 0 -x {0.0 1.0 18 ------- null}
+ -t 2.2 -s 0 -d 1 -p cbr -e 1500 -c 0 -i 20 -a 0 -x {0.0 1.0 20 ------- null}
- -t 2.2 -s 0 -d 1 -p cbr -e 1500 -c 0 -i 20 -a 0 -x {0.0 1.0 20 ------- null}
h -t 2.2 -s 0 -d 1 -p cbr -e 1500 -c 0 -i 20 -a 0 -x {0.0 1.0 -1 ------- null}
r -t 2.203 -s 0 -d 1 -p cbr -e 1500 -c 0 -i 19 -a 0 -x {0.0 1.0 19 ------- null}
+ -t 2.21 -s 0 -d 1 -p cbr -e 1500 -c 0 -i 21 -a 0 -x {0.0 1.0 21 ------- null}
- -t 2.21 -s 0 -d 1 -p cbr -e 1500 -c 0 -i 21 -a 0 -x {0.0 1.0 21 ------- null}
h -t 2.21 -s 0 -d 1 -p cbr -e 1500 -c 0 -i 21 -a 0 -x {0.0 1.0 -1 ------- null}
r -t 2.213 -s 0 -d 1 -p cbr -e 1500 -c 0 -i 20 -a 0 -x {0.0 1.0 20 ------- null}
+ -t 2.22 -s 0 -d 1 -p cbr -e 1500 -c 0 -i 22 -a 0 -x {0.0 1.0 22 ------- null}
- -t 2.22 -s 0 -d 1 -p cbr -e 1500 -c 0 -i 22 -a 0 -x {0.0 1.0 22 ------- null}
h -t 2.22 -s 0 -d 1 -p cbr -e 1500 -c 0 -i 22 -a 0 -x {0.0 1.0 -1 ------- null}
r -t 2.223 -s 0 -d 1 -p cbr -e 1500 -c 0 -i 21 -a 0 -x {0.0 1.0 21 ------- null}
+ -t 2.23 -s 0 -d 1 -p cbr -e 1500 -c 0 -i 23 -a 0 -x {0.0 1.0 23 ------- null}
- -t 2.23 -s 0 -d 1 -p cbr -e 1500 -c 0 -i 23 -a 0 -x {0.0 1.0 23 ------- null}
h -t 2.23 -s 0 -d 1 -p cbr -e 1500 -c 0 -i 23 -a 0 -x {0.0 1.0 -1 ------- null}
r -t 2.233 -s 0 -d 1 -p cbr -e 1500 -c 0 -i 22 -a 0 -x {0.0 1.0 22 ------- null}
+ -t 2.23999999999999 -s 0 -d 1 -p cbr -e 1500 -c 0 -i 24 -a 0 -x {0.0 1.0 24 ------- null}
- -t 2.23999999999999 -s 0 -d 1 -p cbr -e 1500 -c 0 -i 24 -a 0 -x {0.0 1.0 24 ------- null}
h -t 2.23999999999999 -s 0 -d 1 -p cbr -e 1500 -c 0 -i 24 -a 0 -x {0.0 1.0 -1 ------- null}
r -t 2.24299999999999 -s 0 -d 1 -p cbr -e 1500 -c 0 -i 23 -a 0 -x {0.0 1.0 23 ------- null}
+ -t 2.24999999999999 -s 0 -d 1 -p cbr -e 1500 -c 0 -i 25 -a 0 -x {0.0 1.0 25 ------- null}
- -t 2.24999999999999 -s 0 -d 1 -p cbr -e 1500 -c 0 -i 25 -a 0 -x {0.0 1.0 25 ------- null}
h -t 2.24999999999999 -s 0 -d 1 -p cbr -e 1500 -c 0 -i 25 -a 0 -x {0.0 1.0 -1 ------- null}
r -t 2.25299999999999 -s 0 -d 1 -p cbr -e 1500 -c 0 -i 24 -a 0 -x {0.0 1.0 24 ------- null}
+ -t 2.25999999999999 -s 0 -d 1 -p cbr -e 1500 -c 0 -i 26 -a 0 -x {0.0 1.0 26 ------- null}
- -t 2.25999999999999 -s 0 -d 1 -p cbr -e 1500 -c 0 -i 26 -a 0 -x {0.0 1.0 26 ------- null}
h -t 2.25999999999999 -s 0 -d 1 -p cbr -e 1500 -c 0 -i 26 -a 0 -x {0.0 1.0 -1 ------- null}
r -t 2.26299999999999 -s 0 -d 1 -p cbr -e 1500 -c 0 -i 25 -a 0 -x {0.0 1.0 25 ------- null}
+ -t 2.26999999999999 -s 0 -d 1 -p cbr -e 1500 -c 0 -i 27 -a 0 -x {0.0 1.0 27 ------- null}
- -t 2.26999999999999 -s 0 -d 1 -p cbr -e 1500 -c 0 -i 27 -a 0 -x {0.0 1.0 27 ------- null}
h -t 2.26999999999999 -s 0 -d 1 -p cbr -e 1500 -c 0 -i 27 -a 0 -x {0.0 1.0 -1 ------- null}
r -t 2.27299999999999 -s 0 -d 1 -p cbr -e 1500 -c 0 -i 26 -a 0 -x {0.0 1.0 26 ------- null}
+ -t 2.27999999999999 -s 0 -d 1 -p cbr -e 1500 -c 0 -i 28 -a 0 -x {0.0 1.0 28 ------- null}
- -t 2.27999999999999 -s 0 -d 1 -p cbr -e 1500 -c 0 -i 28 -a 0 -x {0.0 1.0 28 ------- null}
h -t 2.27999999999999 -s 0 -d 1 -p cbr -e 1500 -c 0 -i 28 -a 0 -x {0.0 1.0 -1 ------- null}
r -t 2.28299999999999 -s 0 -d 1 -p cbr -e 1500 -c 0 -i 27 -a 0 -x {0.0 1.0 27 ------- null}
+ -t 2.28999999999999 -s 0 -d 1 -p cbr -e 1500 -c 0 -i 29 -a 0 -x {0.0 1.0 29 ------- null}
- -t 2.28999999999999 -s 0 -d 1 -p cbr -e 1500 -c 0 -i 29 -a 0 -x {0.0 1.0 29 ------- null}
h -t 2.28999999999999 -s 0 -d 1 -p cbr -e 1500 -c 0 -i 29 -a 0 -x {0.0 1.0 -1 ------- null}
r -t 2.29299999999999 -s 0 -d 1 -p cbr -e 1500 -c 0 -i 28 -a 0 -x {0.0 1.0 28 ------- null}
+ -t 2.29999999999999 -s 0 -d 1 -p cbr -e 1500 -c 0 -i 30 -a 0 -x {0.0 1.0 30 ------- null}
- -t 2.29999999999999 -s 0 -d 1 -p cbr -e 1500 -c 0 -i 30 -a 0 -x {0.0 1.0 30 ------- null}
h -t 2.29999999999999 -s 0 -d 1 -p cbr -e 1500 -c 0 -i 30 -a 0 -x {0.0 1.0 -1 ------- null}
r -t 2.30299999999999 -s 0 -d 1 -p cbr -e 1500 -c 0 -i 29 -a 0 -x {0.0 1.0 29 ------- null}
+ -t 2.30999999999999 -s 0 -d 1 -p cbr -e 1500 -c 0 -i 31 -a 0 -x {0.0 1.0 31 ------- null}
- -t 2.30999999999999 -s 0 -d 1 -p cbr -e 1500 -c 0 -i 31 -a 0 -x {0.0 1.0 31 ------- null}
h -t 2.30999999999999 -s 0 -d 1 -p cbr -e 1500 -c 0 -i 31 -a 0 -x {0.0 1.0 -1 ------- null}
r -t 2.31299999999999 -s 0 -d 1 -p cbr -e 1500 -c 0 -i 30 -a 0 -x {0.0 1.0 30 ------- null}
+ -t 2.31999999999999 -s 0 -d 1 -p cbr -e 1500 -c 0 -i 32 -a 0 -x {0.0 1.0 32 ------- null}
- -t 2.31999999999999 -s 0 -d 1 -p cbr -e 1500 -c 0 -i 32 -a 0 -x {0.0 1.0 32 ------- null}
h -t 2.31999999999999 -s 0 -d 1 -p cbr -e 1500 -c 0 -i 32 -a 0 -x {0.0 1.0 -1 ------- null}
r -t 2.32299999999999 -s 0 -d 1 -p cbr -e 1500 -c 0 -i 31 -a 0 -x {0.0 1.0 31 ------- null}
+ -t 2.32999999999999 -s 0 -d 1 -p cbr -e 1500 -c 0 -i 33 -a 0 -x {0.0 1.0 33 ------- null}
- -t 2.32999999999999 -s 0 -d 1 -p cbr -e 1500 -c 0 -i 33 -a 0 -x {0.0 1.0 33 ------- null}
h -t 2.32999999999999 -s 0 -d 1 -p cbr -e 1500 -c 0 -i 33 -a 0 -x {0.0 1.0 -1 ------- null}
r -t 2.33299999999999 -s 0 -d 1 -p cbr -e 1500 -c 0 -i 32 -a 0 -x {0.0 1.0 32 ------- null}
+ -t 2.33999999999999 -s 0 -d 1 -p cbr -e 1500 -c 0 -i 34 -a 0 -x {0.0 1.0 34 ------- null}
- -t 2.33999999999999 -s 0 -d 1 -p cbr -e 1500 -c 0 -i 34 -a 0 -x {0.0 1.0 34 ------- null}
h -t 2.33999999999999 -s 0 -d 1 -p cbr -e 1500 -c 0 -i 34 -a 0 -x {0.0 1.0 -1 ------- null}
r -t 2.34299999999999 -s 0 -d 1 -p cbr -e 1500 -c 0 -i 33 -a 0 -x {0.0 1.0 33 ------- null}
+ -t 2.34999999999999 -s 0 -d 1 -p cbr -e 1500 -c 0 -i 35 -a 0 -x {0.0 1.0 35 ------- null}
- -t 2.34999999999999 -s 0 -d 1 -p cbr -e 1500 -c 0 -i 35 -a 0 -x {0.0 1.0 35 ------- null}
h -t 2.34999999999999 -s 0 -d 1 -p cbr -e 1500 -c 0 -i 35 -a 0 -x {0.0 1.0 -1 ------- null}
r -t 2.35299999999999 -s 0 -d 1 -p cbr -e 1500 -c 0 -i 34 -a 0 -x {0.0 1.0 34 ------- null}
+ -t 2.35999999999999 -s 0 -d 1 -p cbr -e 1500 -c 0 -i 36 -a 0 -x {0.0 1.0 36 ------- null}
- -t 2.35999999999999 -s 0 -d 1 -p cbr -e 1500 -c 0 -i 36 -a 0 -x {0.0 1.0 36 ------- null}
h -t 2.35999999999999 -s 0 -d 1 -p cbr -e 1500 -c 0 -i 36 -a 0 -x {0.0 1.0 -1 ------- null}
r -t 2.36299999999999 -s 0 -d 1 -p cbr -e 1500 -c 0 -i 35 -a 0 -x {0.0 1.0 35 ------- null}
+ -t 2.36999999999999 -s 0 -d 1 -p cbr -e 1500 -c 0 -i 37 -a 0 -x {0.0 1.0 37 ------- null}
- -t 2.36999999999999 -s 0 -d 1 -p cbr -e 1500 -c 0 -i 37 -a 0 -x {0.0 1.0 37 ------- null}
h -t 2.36999999999999 -s 0 -d 1 -p cbr -e 1500 -c 0 -i 37 -a 0 -x {0.0 1.0 -1 ------- null}
r -t 2.37299999999999 -s 0 -d 1 -p cbr -e 1500 -c 0 -i 36 -a 0 -x {0.0 1.0 36 ------- null}
+ -t 2.37999999999999 -s 0 -d 1 -p cbr -e 1500 -c 0 -i 38 -a 0 -x {0.0 1.0 38 ------- null}
- -t 2.37999999999999 -s 0 -d 1 -p cbr -e 1500 -c 0 -i 38 -a 0 -x {0.0 1.0 38 ------- null}
h -t 2.37999999999999 -s 0 -d 1 -p cbr -e 1500 -c 0 -i 38 -a 0 -x {0.0 1.0 -1 ------- null}
r -t 2.38299999999999 -s 0 -d 1 -p cbr -e 1500 -c 0 -i 37 -a 0 -x {0.0 1.0 37 ------- null}
+ -t 2.38999999999999 -s 0 -d 1 -p cbr -e 1500 -c 0 -i 39 -a 0 -x {0.0 1.0 39 ------- null}
- -t 2.38999999999999 -s 0 -d 1 -p cbr -e 1500 -c 0 -i 39 -a 0 -x {0.0 1.0 39 ------- null}
h -t 2.38999999999999 -s 0 -d 1 -p cbr -e 1500 -c 0 -i 39 -a 0 -x {0.0 1.0 -1 ------- null}
r -t 2.39299999999999 -s 0 -d 1 -p cbr -e 1500 -c 0 -i 38 -a 0 -x {0.0 1.0 38 ------- null}
+ -t 2.39999999999999 -s 0 -d 1 -p cbr -e 1500 -c 0 -i 40 -a 0 -x {0.0 1.0 40 ------- null}
- -t 2.39999999999999 -s 0 -d 1 -p cbr -e 1500 -c 0 -i 40 -a 0 -x {0.0 1.0 40 ------- null}
h -t 2.39999999999999 -s 0 -d 1 -p cbr -e 1500 -c 0 -i 40 -a 0 -x {0.0 1.0 -1 ------- null}
r -t 2.40299999999999 -s 0 -d 1 -p cbr -e 1500 -c 0 -i 39 -a 0 -x {0.0 1.0 39 ------- null}
+ -t 2.40999999999999 -s 0 -d 1 -p cbr -e 1500 -c 0 -i 41 -a 0 -x {0.0 1.0 41 ------- null}
- -t 2.40999999999999 -s 0 -d 1 -p cbr -e 1500 -c 0 -i 41 -a 0 -x {0.0 1.0 41 ------- null}
h -t 2.40999999999999 -s 0 -d 1 -p cbr -e 1500 -c 0 -i 41 -a 0 -x {0.0 1.0 -1 ------- null}
r -t 2.41299999999999 -s 0 -d 1 -p cbr -e 1500 -c 0 -i 40 -a 0 -x {0.0 1.0 40 ------- null}
+ -t 2.41999999999999 -s 0 -d 1 -p cbr -e 1500 -c 0 -i 42 -a 0 -x {0.0 1.0 42 ------- null}
- -t 2.41999999999999 -s 0 -d 1 -p cbr -e 1500 -c 0 -i 42 -a 0 -x {0.0 1.0 42 ------- null}
h -t 2.41999999999999 -s 0 -d 1 -p cbr -e 1500 -c 0 -i 42 -a 0 -x {0.0 1.0 -1 ------- null}
r -t 2.42299999999999 -s 0 -d 1 -p cbr -e 1500 -c 0 -i 41 -a 0 -x {0.0 1.0 41 ------- null}
+ -t 2.42999999999999 -s 0 -d 1 -p cbr -e 1500 -c 0 -i 43 -a 0 -x {0.0 1.0 43 ------- null}
- -t 2.42999999999999 -s 0 -d 1 -p cbr -e 1500 -c 0 -i 43 -a 0 -x {0.0 1.0 43 ------- null}
h -t 2.42999999999999 -s 0 -d 1 -p cbr -e 1500 -c 0 -i 43 -a 0 -x {0.0 1.0 -1 ------- null}
r -t 2.43299999999999 -s 0 -d 1 -p cbr -e 1500 -c 0 -i 42 -a 0 -x {0.0 1.0 42 ------- null}
+ -t 2.43999999999999 -s 0 -d 1 -p cbr -e 1500 -c 0 -i 44 -a 0 -x {0.0 1.0 44 ------- null}
- -t 2.43999999999999 -s 0 -d 1 -p cbr -e 1500 -c 0 -i 44 -a 0 -x {0.0 1.0 44 ------- null}
h -t 2.43999999999999 -s 0 -d 1 -p cbr -e 1500 -c 0 -i 44 -a 0 -x {0.0 1.0 -1 ------- null}
r -t 2.44299999999999 -s 0 -d 1 -p cbr -e 1500 -c 0 -i 43 -a 0 -x {0.0 1.0 43 ------- null}
+ -t 2.44999999999999 -s 0 -d 1 -p cbr -e 1500 -c 0 -i 45 -a 0 -x {0.0 1.0 45 ------- null}
- -t 2.44999999999999 -s 0 -d 1 -p cbr -e 1500 -c 0 -i 45 -a 0 -x {0.0 1.0 45 ------- null}
h -t 2.44999999999999 -s 0 -d 1 -p cbr -e 1500 -c 0 -i 45 -a 0 -x {0.0 1.0 -1 ------- null}
r -t 2.45299999999999 -s 0 -d 1 -p cbr -e 1500 -c 0 -i 44 -a 0 -x {0.0 1.0 44 ------- null}
+ -t 2.45999999999999 -s 0 -d 1 -p cbr -e 1500 -c 0 -i 46 -a 0 -x {0.0 1.0 46 ------- null}
- -t 2.45999999999999 -s 0 -d 1 -p cbr -e 1500 -c 0 -i 46 -a 0 -x {0.0 1.0 46 ------- null}
h -t 2.45999999999999 -s 0 -d 1 -p cbr -e 1500 -c 0 -i 46 -a 0 -x {0.0 1.0 -1 ------- null}
r -t 2.46299999999999 -s 0 -d 1 -p cbr -e 1500 -c 0 -i 45 -a 0 -x {0.0 1.0 45 ------- null}
+ -t 2.46999999999999 -s 0 -d 1 -p cbr -e 1500 -c 0 -i 47 -a 0 -x {0.0 1.0 47 ------- null}
- -t 2.46999999999999 -s 0 -d 1 -p cbr -e 1500 -c 0 -i 47 -a 0 -x {0.0 1.0 47 ------- null}
h -t 2.46999999999999 -s 0 -d 1 -p cbr -e 1500 -c 0 -i 47 -a 0 -x {0.0 1.0 -1 ------- null}
r -t 2.47299999999999 -s 0 -d 1 -p cbr -e 1500 -c 0 -i 46 -a 0 -x {0.0 1.0 46 ------- null}
+ -t 2.47999999999999 -s 0 -d 1 -p cbr -e 1500 -c 0 -i 48 -a 0 -x {0.0 1.0 48 ------- null}
- -t 2.47999999999999 -s 0 -d 1 -p cbr -e 1500 -c 0 -i 48 -a 0 -x {0.0 1.0 48 ------- null}
h -t 2.47999999999999 -s 0 -d 1 -p cbr -e 1500 -c 0 -i 48 -a 0 -x {0.0 1.0 -1 ------- null}
r -t 2.48299999999999 -s 0 -d 1 -p cbr -e 1500 -c 0 -i 47 -a 0 -x {0.0 1.0 47 ------- null}
+ -t 2.48999999999999 -s 0 -d 1 -p cbr -e 1500 -c 0 -i 49 -a 0 -x {0.0 1.0 49 ------- null}
- -t 2.48999999999999 -s 0 -d 1 -p cbr -e 1500 -c 0 -i 49 -a 0 -x {0.0 1.0 49 ------- null}
h -t 2.48999999999999 -s 0 -d 1 -p cbr -e 1500 -c 0 -i 49 -a 0 -x {0.0 1.0 -1 ------- null}
r -t 2.49299999999999 -s 0 -d 1 -p cbr -e 1500 -c 0 -i 48 -a 0 -x {0.0 1.0 48 ------- null}
+ -t 2.49999999999999 -s 0 -d 1 -p cbr -e 1500 -c 0 -i 50 -a 0 -x {0.0 1.0 50 ------- null}
- -t 2.49999999999999 -s 0 -d 1 -p cbr -e 1500 -c 0 -i 50 -a 0 -x {0.0 1.0 50 ------- null}
h -t 2.49999999999999 -s 0 -d 1 -p cbr -e 1500 -c 0 -i 50 -a 0 -x {0.0 1.0 -1 ------- null}
r -t 2.50299999999999 -s 0 -d 1 -p cbr -e 1500 -c 0 -i 49 -a 0 -x {0.0 1.0 49 ------- null}
+ -t 2.50999999999999 -s 0 -d 1 -p cbr -e 1500 -c 0 -i 51 -a 0 -x {0.0 1.0 51 ------- null}
- -t 2.50999999999999 -s 0 -d 1 -p cbr -e 1500 -c 0 -i 51 -a 0 -x {0.0 1.0 51 ------- null}
h -t 2.50999999999999 -s 0 -d 1 -p cbr -e 1500 -c 0 -i 51 -a 0 -x {0.0 1.0 -1 ------- null}
r -t 2.51299999999999 -s 0 -d 1 -p cbr -e 1500 -c 0 -i 50 -a 0 -x {0.0 1.0 50 ------- null}
+ -t 2.51999999999999 -s 0 -d 1 -p cbr -e 1500 -c 0 -i 52 -a 0 -x {0.0 1.0 52 ------- null}
- -t 2.51999999999999 -s 0 -d 1 -p cbr -e 1500 -c 0 -i 52 -a 0 -x {0.0 1.0 52 ------- null}
h -t 2.51999999999999 -s 0 -d 1 -p cbr -e 1500 -c 0 -i 52 -a 0 -x {0.0 1.0 -1 ------- null}
r -t 2.52299999999999 -s 0 -d 1 -p cbr -e 1500 -c 0 -i 51 -a 0 -x {0.0 1.0 51 ------- null}
+ -t 2.52999999999999 -s 0 -d 1 -p cbr -e 1500 -c 0 -i 53 -a 0 -x {0.0 1.0 53 ------- null}
- -t 2.52999999999999 -s 0 -d 1 -p cbr -e 1500 -c 0 -i 53 -a 0 -x {0.0 1.0 53 ------- null}
h -t 2.52999999999999 -s 0 -d 1 -p cbr -e 1500 -c 0 -i 53 -a 0 -x {0.0 1.0 -1 ------- null}
r -t 2.53299999999999 -s 0 -d 1 -p cbr -e 1500 -c 0 -i 52 -a 0 -x {0.0 1.0 52 ------- null}
+ -t 2.53999999999999 -s 0 -d 1 -p cbr -e 1500 -c 0 -i 54 -a 0 -x {0.0 1.0 54 ------- null}
- -t 2.53999999999999 -s 0 -d 1 -p cbr -e 1500 -c 0 -i 54 -a 0 -x {0.0 1.0 54 ------- null}
h -t 2.53999999999999 -s 0 -d 1 -p cbr -e 1500 -c 0 -i 54 -a 0 -x {0.0 1.0 -1 ------- null}
r -t 2.54299999999999 -s 0 -d 1 -p cbr -e 1500 -c 0 -i 53 -a 0 -x {0.0 1.0 53 ------- null}
+ -t 2.54999999999999 -s 0 -d 1 -p cbr -e 1500 -c 0 -i 55 -a 0 -x {0.0 1.0 55 ------- null}
- -t 2.54999999999999 -s 0 -d 1 -p cbr -e 1500 -c 0 -i 55 -a 0 -x {0.0 1.0 55 ------- null}
h -t 2.54999999999999 -s 0 -d 1 -p cbr -e 1500 -c 0 -i 55 -a 0 -x {0.0 1.0 -1 ------- null}
r -t 2.55299999999999 -s 0 -d 1 -p cbr -e 1500 -c 0 -i 54 -a 0 -x {0.0 1.0 54 ------- null}
+ -t 2.55999999999999 -s 0 -d 1 -p cbr -e 1500 -c 0 -i 56 -a 0 -x {0.0 1.0 56 ------- null}
- -t 2.55999999999999 -s 0 -d 1 -p cbr -e 1500 -c 0 -i 56 -a 0 -x {0.0 1.0 56 ------- null}
h -t 2.55999999999999 -s 0 -d 1 -p cbr -e 1500 -c 0 -i 56 -a 0 -x {0.0 1.0 -1 ------- null}
r -t 2.56299999999999 -s 0 -d 1 -p cbr -e 1500 -c 0 -i 55 -a 0 -x {0.0 1.0 55 ------- null}
+ -t 2.56999999999999 -s 0 -d 1 -p cbr -e 1500 -c 0 -i 57 -a 0 -x {0.0 1.0 57 ------- null}
- -t 2.56999999999999 -s 0 -d 1 -p cbr -e 1500 -c 0 -i 57 -a 0 -x {0.0 1.0 57 ------- null}
h -t 2.56999999999999 -s 0 -d 1 -p cbr -e 1500 -c 0 -i 57 -a 0 -x {0.0 1.0 -1 ------- null}
r -t 2.57299999999999 -s 0 -d 1 -p cbr -e 1500 -c 0 -i 56 -a 0 -x {0.0 1.0 56 ------- null}
+ -t 2.57999999999999 -s 0 -d 1 -p cbr -e 1500 -c 0 -i 58 -a 0 -x {0.0 1.0 58 ------- null}
- -t 2.57999999999999 -s 0 -d 1 -p cbr -e 1500 -c 0 -i 58 -a 0 -x {0.0 1.0 58 ------- null}
h -t 2.57999999999999 -s 0 -d 1 -p cbr -e 1500 -c 0 -i 58 -a 0 -x {0.0 1.0 -1 ------- null}
r -t 2.58299999999999 -s 0 -d 1 -p cbr -e 1500 -c 0 -i 57 -a 0 -x {0.0 1.0 57 ------- null}
+ -t 2.58999999999999 -s 0 -d 1 -p cbr -e 1500 -c 0 -i 59 -a 0 -x {0.0 1.0 59 ------- null}
- -t 2.58999999999999 -s 0 -d 1 -p cbr -e 1500 -c 0 -i 59 -a 0 -x {0.0 1.0 59 ------- null}
h -t 2.58999999999999 -s 0 -d 1 -p cbr -e 1500 -c 0 -i 59 -a 0 -x {0.0 1.0 -1 ------- null}
r -t 2.59299999999999 -s 0 -d 1 -p cbr -e 1500 -c 0 -i 58 -a 0 -x {0.0 1.0 58 ------- null}
+ -t 2.59999999999999 -s 0 -d 1 -p cbr -e 1500 -c 0 -i 60 -a 0 -x {0.0 1.0 60 ------- null}
- -t 2.59999999999999 -s 0 -d 1 -p cbr -e 1500 -c 0 -i 60 -a 0 -x {0.0 1.0 60 ------- null}
h -t 2.59999999999999 -s 0 -d 1 -p cbr -e 1500 -c 0 -i 60 -a 0 -x {0.0 1.0 -1 ------- null}
r -t 2.60299999999999 -s 0 -d 1 -p cbr -e 1500 -c 0 -i 59 -a 0 -x {0.0 1.0 59 ------- null}
+ -t 2.60999999999999 -s 0 -d 1 -p cbr -e 1500 -c 0 -i 61 -a 0 -x {0.0 1.0 61 ------- null}
- -t 2.60999999999999 -s 0 -d 1 -p cbr -e 1500 -c 0 -i 61 -a 0 -x {0.0 1.0 61 ------- null}
h -t 2.60999999999999 -s 0 -d 1 -p cbr -e 1500 -c 0 -i 61 -a 0 -x {0.0 1.0 -1 ------- null}
r -t 2.61299999999999 -s 0 -d 1 -p cbr -e 1500 -c 0 -i 60 -a 0 -x {0.0 1.0 60 ------- null}
+ -t 2.61999999999999 -s 0 -d 1 -p cbr -e 1500 -c 0 -i 62 -a 0 -x {0.0 1.0 62 ------- null}
- -t 2.61999999999999 -s 0 -d 1 -p cbr -e 1500 -c 0 -i 62 -a 0 -x {0.0 1.0 62 ------- null}
h -t 2.61999999999999 -s 0 -d 1 -p cbr -e 1500 -c 0 -i 62 -a 0 -x {0.0 1.0 -1 ------- null}
r -t 2.62299999999999 -s 0 -d 1 -p cbr -e 1500 -c 0 -i 61 -a 0 -x {0.0 1.0 61 ------- null}
+ -t 2.62999999999999 -s 0 -d 1 -p cbr -e 1500 -c 0 -i 63 -a 0 -x {0.0 1.0 63 ------- null}
- -t 2.62999999999999 -s 0 -d 1 -p cbr -e 1500 -c 0 -i 63 -a 0 -x {0.0 1.0 63 ------- null}
h -t 2.62999999999999 -s 0 -d 1 -p cbr -e 1500 -c 0 -i 63 -a 0 -x {0.0 1.0 -1 ------- null}
r -t 2.63299999999999 -s 0 -d 1 -p cbr -e 1500 -c 0 -i 62 -a 0 -x {0.0 1.0 62 ------- null}
+ -t 2.63999999999999 -s 0 -d 1 -p cbr -e 1500 -c 0 -i 64 -a 0 -x {0.0 1.0 64 ------- null}
- -t 2.63999999999999 -s 0 -d 1 -p cbr -e 1500 -c 0 -i 64 -a 0 -x {0.0 1.0 64 ------- null}
h -t 2.63999999999999 -s 0 -d 1 -p cbr -e 1500 -c 0 -i 64 -a 0 -x {0.0 1.0 -1 ------- null}
r -t 2.64299999999999 -s 0 -d 1 -p cbr -e 1500 -c 0 -i 63 -a 0 -x {0.0 1.0 63 ------- null}
+ -t 2.64999999999999 -s 0 -d 1 -p cbr -e 1500 -c 0 -i 65 -a 0 -x {0.0 1.0 65 ------- null}
- -t 2.64999999999999 -s 0 -d 1 -p cbr -e 1500 -c 0 -i 65 -a 0 -x {0.0 1.0 65 ------- null}
h -t 2.64999999999999 -s 0 -d 1 -p cbr -e 1500 -c 0 -i 65 -a 0 -x {0.0 1.0 -1 ------- null}
r -t 2.65299999999999 -s 0 -d 1 -p cbr -e 1500 -c 0 -i 64 -a 0 -x {0.0 1.0 64 ------- null}
+ -t 2.65999999999999 -s 0 -d 1 -p cbr -e 1500 -c 0 -i 66 -a 0 -x {0.0 1.0 66 ------- null}
- -t 2.65999999999999 -s 0 -d 1 -p cbr -e 1500 -c 0 -i 66 -a 0 -x {0.0 1.0 66 ------- null}
h -t 2.65999999999999 -s 0 -d 1 -p cbr -e 1500 -c 0 -i 66 -a 0 -x {0.0 1.0 -1 ------- null}
r -t 2.66299999999999 -s 0 -d 1 -p cbr -e 1500 -c 0 -i 65 -a 0 -x {0.0 1.0 65 ------- null}
+ -t 2.66999999999999 -s 0 -d 1 -p cbr -e 1500 -c 0 -i 67 -a 0 -x {0.0 1.0 67 ------- null}
- -t 2.66999999999999 -s 0 -d 1 -p cbr -e 1500 -c 0 -i 67 -a 0 -x {0.0 1.0 67 ------- null}
h -t 2.66999999999999 -s 0 -d 1 -p cbr -e 1500 -c 0 -i 67 -a 0 -x {0.0 1.0 -1 ------- null}
r -t 2.67299999999999 -s 0 -d 1 -p cbr -e 1500 -c 0 -i 66 -a 0 -x {0.0 1.0 66 ------- null}
+ -t 2.67999999999999 -s 0 -d 1 -p cbr -e 1500 -c 0 -i 68 -a 0 -x {0.0 1.0 68 ------- null}
- -t 2.67999999999999 -s 0 -d 1 -p cbr -e 1500 -c 0 -i 68 -a 0 -x {0.0 1.0 68 ------- null}
h -t 2.67999999999999 -s 0 -d 1 -p cbr -e 1500 -c 0 -i 68 -a 0 -x {0.0 1.0 -1 ------- null}
r -t 2.68299999999999 -s 0 -d 1 -p cbr -e 1500 -c 0 -i 67 -a 0 -x {0.0 1.0 67 ------- null}
+ -t 2.68999999999999 -s 0 -d 1 -p cbr -e 1500 -c 0 -i 69 -a 0 -x {0.0 1.0 69 ------- null}
- -t 2.68999999999999 -s 0 -d 1 -p cbr -e 1500 -c 0 -i 69 -a 0 -x {0.0 1.0 69 ------- null}
h -t 2.68999999999999 -s 0 -d 1 -p cbr -e 1500 -c 0 -i 69 -a 0 -x {0.0 1.0 -1 ------- null}
r -t 2.69299999999999 -s 0 -d 1 -p cbr -e 1500 -c 0 -i 68 -a 0 -x {0.0 1.0 68 ------- null}
+ -t 2.69999999999999 -s 0 -d 1 -p cbr -e 1500 -c 0 -i 70 -a 0 -x {0.0 1.0 70 ------- null}
- -t 2.69999999999999 -s 0 -d 1 -p cbr -e 1500 -c 0 -i 70 -a 0 -x {0.0 1.0 70 ------- null}
h -t 2.69999999999999 -s 0 -d 1 -p cbr -e 1500 -c 0 -i 70 -a 0 -x {0.0 1.0 -1 ------- null}
r -t 2.70299999999999 -s 0 -d 1 -p cbr -e 1500 -c 0 -i 69 -a 0 -x {0.0 1.0 69 ------- null}
+ -t 2.70999999999998 -s 0 -d 1 -p cbr -e 1500 -c 0 -i 71 -a 0 -x {0.0 1.0 71 ------- null}
- -t 2.70999999999998 -s 0 -d 1 -p cbr -e 1500 -c 0 -i 71 -a 0 -x {0.0 1.0 71 ------- null}
h -t 2.70999999999998 -s 0 -d 1 -p cbr -e 1500 -c 0 -i 71 -a 0 -x {0.0 1.0 -1 ------- null}
r -t 2.71299999999998 -s 0 -d 1 -p cbr -e 1500 -c 0 -i 70 -a 0 -x {0.0 1.0 70 ------- null}
+ -t 2.71999999999998 -s 0 -d 1 -p cbr -e 1500 -c 0 -i 72 -a 0 -x {0.0 1.0 72 ------- null}
- -t 2.71999999999998 -s 0 -d 1 -p cbr -e 1500 -c 0 -i 72 -a 0 -x {0.0 1.0 72 ------- null}
h -t 2.71999999999998 -s 0 -d 1 -p cbr -e 1500 -c 0 -i 72 -a 0 -x {0.0 1.0 -1 ------- null}
r -t 2.72299999999998 -s 0 -d 1 -p cbr -e 1500 -c 0 -i 71 -a 0 -x {0.0 1.0 71 ------- null}
+ -t 2.72999999999998 -s 0 -d 1 -p cbr -e 1500 -c 0 -i 73 -a 0 -x {0.0 1.0 73 ------- null}
- -t 2.72999999999998 -s 0 -d 1 -p cbr -e 1500 -c 0 -i 73 -a 0 -x {0.0 1.0 73 ------- null}
h -t 2.72999999999998 -s 0 -d 1 -p cbr -e 1500 -c 0 -i 73 -a 0 -x {0.0 1.0 -1 ------- null}
r -t 2.73299999999998 -s 0 -d 1 -p cbr -e 1500 -c 0 -i 72 -a 0 -x {0.0 1.0 72 ------- null}
+ -t 2.73999999999998 -s 0 -d 1 -p cbr -e 1500 -c 0 -i 74 -a 0 -x {0.0 1.0 74 ------- null}
- -t 2.73999999999998 -s 0 -d 1 -p cbr -e 1500 -c 0 -i 74 -a 0 -x {0.0 1.0 74 ------- null}
h -t 2.73999999999998 -s 0 -d 1 -p cbr -e 1500 -c 0 -i 74 -a 0 -x {0.0 1.0 -1 ------- null}
r -t 2.74299999999998 -s 0 -d 1 -p cbr -e 1500 -c 0 -i 73 -a 0 -x {0.0 1.0 73 ------- null}
+ -t 2.74999999999998 -s 0 -d 1 -p cbr -e 1500 -c 0 -i 75 -a 0 -x {0.0 1.0 75 ------- null}
- -t 2.74999999999998 -s 0 -d 1 -p cbr -e 1500 -c 0 -i 75 -a 0 -x {0.0 1.0 75 ------- null}
h -t 2.74999999999998 -s 0 -d 1 -p cbr -e 1500 -c 0 -i 75 -a 0 -x {0.0 1.0 -1 ------- null}
r -t 2.75299999999998 -s 0 -d 1 -p cbr -e 1500 -c 0 -i 74 -a 0 -x {0.0 1.0 74 ------- null}
+ -t 2.75999999999998 -s 0 -d 1 -p cbr -e 1500 -c 0 -i 76 -a 0 -x {0.0 1.0 76 ------- null}
- -t 2.75999999999998 -s 0 -d 1 -p cbr -e 1500 -c 0 -i 76 -a 0 -x {0.0 1.0 76 ------- null}
h -t 2.75999999999998 -s 0 -d 1 -p cbr -e 1500 -c 0 -i 76 -a 0 -x {0.0 1.0 -1 ------- null}
r -t 2.76299999999998 -s 0 -d 1 -p cbr -e 1500 -c 0 -i 75 -a 0 -x {0.0 1.0 75 ------- null}
+ -t 2.76999999999998 -s 0 -d 1 -p cbr -e 1500 -c 0 -i 77 -a 0 -x {0.0 1.0 77 ------- null}
- -t 2.76999999999998 -s 0 -d 1 -p cbr -e 1500 -c 0 -i 77 -a 0 -x {0.0 1.0 77 ------- null}
h -t 2.76999999999998 -s 0 -d 1 -p cbr -e 1500 -c 0 -i 77 -a 0 -x {0.0 1.0 -1 ------- null}
r -t 2.77299999999998 -s 0 -d 1 -p cbr -e 1500 -c 0 -i 76 -a 0 -x {0.0 1.0 76 ------- null}
+ -t 2.77999999999998 -s 0 -d 1 -p cbr -e 1500 -c 0 -i 78 -a 0 -x {0.0 1.0 78 ------- null}
- -t 2.77999999999998 -s 0 -d 1 -p cbr -e 1500 -c 0 -i 78 -a 0 -x {0.0 1.0 78 ------- null}
h -t 2.77999999999998 -s 0 -d 1 -p cbr -e 1500 -c 0 -i 78 -a 0 -x {0.0 1.0 -1 ------- null}
r -t 2.78299999999998 -s 0 -d 1 -p cbr -e 1500 -c 0 -i 77 -a 0 -x {0.0 1.0 77 ------- null}
+ -t 2.78999999999998 -s 0 -d 1 -p cbr -e 1500 -c 0 -i 79 -a 0 -x {0.0 1.0 79 ------- null}
- -t 2.78999999999998 -s 0 -d 1 -p cbr -e 1500 -c 0 -i 79 -a 0 -x {0.0 1.0 79 ------- null}
h -t 2.78999999999998 -s 0 -d 1 -p cbr -e 1500 -c 0 -i 79 -a 0 -x {0.0 1.0 -1 ------- null}
r -t 2.79299999999998 -s 0 -d 1 -p cbr -e 1500 -c 0 -i 78 -a 0 -x {0.0 1.0 78 ------- null}
+ -t 2.79999999999998 -s 0 -d 1 -p cbr -e 1500 -c 0 -i 80 -a 0 -x {0.0 1.0 80 ------- null}
- -t 2.79999999999998 -s 0 -d 1 -p cbr -e 1500 -c 0 -i 80 -a 0 -x {0.0 1.0 80 ------- null}
h -t 2.79999999999998 -s 0 -d 1 -p cbr -e 1500 -c 0 -i 80 -a 0 -x {0.0 1.0 -1 ------- null}
r -t 2.80299999999998 -s 0 -d 1 -p cbr -e 1500 -c 0 -i 79 -a 0 -x {0.0 1.0 79 ------- null}
+ -t 2.80999999999998 -s 0 -d 1 -p cbr -e 1500 -c 0 -i 81 -a 0 -x {0.0 1.0 81 ------- null}
- -t 2.80999999999998 -s 0 -d 1 -p cbr -e 1500 -c 0 -i 81 -a 0 -x {0.0 1.0 81 ------- null}
h -t 2.80999999999998 -s 0 -d 1 -p cbr -e 1500 -c 0 -i 81 -a 0 -x {0.0 1.0 -1 ------- null}
r -t 2.81299999999998 -s 0 -d 1 -p cbr -e 1500 -c 0 -i 80 -a 0 -x {0.0 1.0 80 ------- null}
+ -t 2.81999999999998 -s 0 -d 1 -p cbr -e 1500 -c 0 -i 82 -a 0 -x {0.0 1.0 82 ------- null}
- -t 2.81999999999998 -s 0 -d 1 -p cbr -e 1500 -c 0 -i 82 -a 0 -x {0.0 1.0 82 ------- null}
h -t 2.81999999999998 -s 0 -d 1 -p cbr -e 1500 -c 0 -i 82 -a 0 -x {0.0 1.0 -1 ------- null}
r -t 2.82299999999998 -s 0 -d 1 -p cbr -e 1500 -c 0 -i 81 -a 0 -x {0.0 1.0 81 ------- null}
+ -t 2.82999999999998 -s 0 -d 1 -p cbr -e 1500 -c 0 -i 83 -a 0 -x {0.0 1.0 83 ------- null}
- -t 2.82999999999998 -s 0 -d 1 -p cbr -e 1500 -c 0 -i 83 -a 0 -x {0.0 1.0 83 ------- null}
h -t 2.82999999999998 -s 0 -d 1 -p cbr -e 1500 -c 0 -i 83 -a 0 -x {0.0 1.0 -1 ------- null}
r -t 2.83299999999998 -s 0 -d 1 -p cbr -e 1500 -c 0 -i 82 -a 0 -x {0.0 1.0 82 ------- null}
+ -t 2.83999999999998 -s 0 -d 1 -p cbr -e 1500 -c 0 -i 84 -a 0 -x {0.0 1.0 84 ------- null}