0 0.0
0.20000000000000001 0.0
+ 0.4 0 3 tcp 2000 ------- 0 0.0 3.0 0 0
- 0.4 0 3 tcp 2000 ------- 0 0.0 3.0 0 0
+ 0.4 0 3 tcp 2040 ------- 0 0.0 3.0 1 1
+ 0.4 0 3 tcp 2040 ------- 0 0.0 3.0 2 2
+ 0.4 0 3 tcp 2040 ------- 0 0.0 3.0 3 3
+ 0.4 0 3 tcp 2040 ------- 0 0.0 3.0 4 4
+ 0.4 0 3 tcp 2040 ------- 0 0.0 3.0 5 5
+ 0.4 0 3 tcp 2040 ------- 0 0.0 3.0 6 6
+ 0.4 0 3 tcp 2040 ------- 0 0.0 3.0 7 7
+ 0.4 0 3 tcp 2040 ------- 0 0.0 3.0 8 8
+ 0.4 0 3 tcp 2040 ------- 0 0.0 3.0 9 9
+ 0.4 0 3 tcp 2040 ------- 0 0.0 3.0 10 10
+ 0.4 0 3 tcp 2040 ------- 0 0.0 3.0 11 11
+ 0.4 0 3 tcp 2040 ------- 0 0.0 3.0 12 12
+ 0.4 0 3 tcp 2040 ------- 0 0.0 3.0 13 13
+ 0.4 0 3 tcp 2040 ------- 0 0.0 3.0 14 14
+ 0.4 0 3 tcp 2040 ------- 0 0.0 3.0 15 15
+ 0.4 0 3 tcp 2040 ------- 0 0.0 3.0 16 16
+ 0.4 1 2 tcp 2000 ------- 1 1.0 2.0 0 17
- 0.4 1 2 tcp 2000 ------- 1 1.0 2.0 0 17
0.40000000000000002 0.0
- 0.404 0 3 tcp 2040 ------- 0 0.0 3.0 1 1
- 0.40808 0 3 tcp 2040 ------- 0 0.0 3.0 2 2
- 0.41216 0 3 tcp 2040 ------- 0 0.0 3.0 3 3
- 0.41624 0 3 tcp 2040 ------- 0 0.0 3.0 4 4
- 0.42032 0 3 tcp 2040 ------- 0 0.0 3.0 5 5
- 0.4244 0 3 tcp 2040 ------- 0 0.0 3.0 6 6
- 0.42848 0 3 tcp 2040 ------- 0 0.0 3.0 7 7
- 0.43256 0 3 tcp 2040 ------- 0 0.0 3.0 8 8
- 0.43664 0 3 tcp 2040 ------- 0 0.0 3.0 9 9
- 0.44072 0 3 tcp 2040 ------- 0 0.0 3.0 10 10
- 0.4448 0 3 tcp 2040 ------- 0 0.0 3.0 11 11
- 0.44888 0 3 tcp 2040 ------- 0 0.0 3.0 12 12
- 0.45296 0 3 tcp 2040 ------- 0 0.0 3.0 13 13
- 0.45704 0 3 tcp 2040 ------- 0 0.0 3.0 14 14
- 0.46112 0 3 tcp 2040 ------- 0 0.0 3.0 15 15
- 0.4652 0 3 tcp 2040 ------- 0 0.0 3.0 16 16
r 0.506 0 3 tcp 2000 ------- 0 0.0 3.0 0 0
+ 0.506 3 0 ack 40 ------- 0 3.0 0.0 0 18
- 0.506 3 0 ack 40 ------- 0 3.0 0.0 0 18
r 0.506 1 2 tcp 2000 ------- 1 1.0 2.0 0 17
+ 0.506 2 1 ack 40 ------- 1 2.0 1.0 0 19
- 0.506 2 1 ack 40 ------- 1 2.0 1.0 0 19
r 0.51008 0 3 tcp 2040 ------- 0 0.0 3.0 1 1
+ 0.51008 3 0 ack 40 ------- 0 3.0 0.0 1 20
- 0.51008 3 0 ack 40 ------- 0 3.0 0.0 1 20
r 0.51416 0 3 tcp 2040 ------- 0 0.0 3.0 2 2
+ 0.51416 3 0 ack 40 ------- 0 3.0 0.0 2 21
- 0.51416 3 0 ack 40 ------- 0 3.0 0.0 2 21
r 0.51824 0 3 tcp 2040 ------- 0 0.0 3.0 3 3
+ 0.51824 3 0 ack 40 ------- 0 3.0 0.0 3 22
- 0.51824 3 0 ack 40 ------- 0 3.0 0.0 3 22
r 0.52232 0 3 tcp 2040 ------- 0 0.0 3.0 4 4
+ 0.52232 3 0 ack 40 ------- 0 3.0 0.0 4 23
- 0.52232 3 0 ack 40 ------- 0 3.0 0.0 4 23
r 0.5264 0 3 tcp 2040 ------- 0 0.0 3.0 5 5
+ 0.5264 3 0 ack 40 ------- 0 3.0 0.0 5 24
- 0.5264 3 0 ack 40 ------- 0 3.0 0.0 5 24
r 0.53048 0 3 tcp 2040 ------- 0 0.0 3.0 6 6
+ 0.53048 3 0 ack 40 ------- 0 3.0 0.0 6 25
- 0.53048 3 0 ack 40 ------- 0 3.0 0.0 6 25
r 0.53456 0 3 tcp 2040 ------- 0 0.0 3.0 7 7
+ 0.53456 3 0 ack 40 ------- 0 3.0 0.0 7 26
- 0.53456 3 0 ack 40 ------- 0 3.0 0.0 7 26
r 0.53864 0 3 tcp 2040 ------- 0 0.0 3.0 8 8
+ 0.53864 3 0 ack 40 ------- 0 3.0 0.0 8 27
- 0.53864 3 0 ack 40 ------- 0 3.0 0.0 8 27
r 0.54272 0 3 tcp 2040 ------- 0 0.0 3.0 9 9
+ 0.54272 3 0 ack 40 ------- 0 3.0 0.0 9 28
- 0.54272 3 0 ack 40 ------- 0 3.0 0.0 9 28
r 0.5468 0 3 tcp 2040 ------- 0 0.0 3.0 10 10
+ 0.5468 3 0 ack 40 ------- 0 3.0 0.0 10 29
- 0.5468 3 0 ack 40 ------- 0 3.0 0.0 10 29
r 0.55088 0 3 tcp 2040 ------- 0 0.0 3.0 11 11
+ 0.55088 3 0 ack 40 ------- 0 3.0 0.0 11 30
- 0.55088 3 0 ack 40 ------- 0 3.0 0.0 11 30
r 0.55496 0 3 tcp 2040 ------- 0 0.0 3.0 12 12
+ 0.55496 3 0 ack 40 ------- 0 3.0 0.0 12 31
- 0.55496 3 0 ack 40 ------- 0 3.0 0.0 12 31
r 0.55904 0 3 tcp 2040 ------- 0 0.0 3.0 13 13
+ 0.55904 3 0 ack 40 ------- 0 3.0 0.0 13 32
- 0.55904 3 0 ack 40 ------- 0 3.0 0.0 13 32
r 0.56312 0 3 tcp 2040 ------- 0 0.0 3.0 14 14
+ 0.56312 3 0 ack 40 ------- 0 3.0 0.0 14 33
- 0.56312 3 0 ack 40 ------- 0 3.0 0.0 14 33
r 0.5672 0 3 tcp 2040 ------- 0 0.0 3.0 15 15
+ 0.5672 3 0 ack 40 ------- 0 3.0 0.0 15 34
- 0.5672 3 0 ack 40 ------- 0 3.0 0.0 15 34
r 0.57128 0 3 tcp 2040 ------- 0 0.0 3.0 16 16
+ 0.57128 3 0 ack 40 ------- 0 3.0 0.0 16 35
- 0.57128 3 0 ack 40 ------- 0 3.0 0.0 16 35
0.60000000000000009 1.3855999999999999
r 0.60808 3 0 ack 40 ------- 0 3.0 0.0 0 18
+ 0.60808 0 3 tcp 2040 ------- 0 0.0 3.0 17 36
- 0.60808 0 3 tcp 2040 ------- 0 0.0 3.0 17 36
r 0.60808 2 1 ack 40 ------- 1 2.0 1.0 0 19
+ 0.60808 1 2 tcp 2040 ------- 1 1.0 2.0 1 37
- 0.60808 1 2 tcp 2040 ------- 1 1.0 2.0 1 37
r 0.61216 3 0 ack 40 ------- 0 3.0 0.0 1 20
+ 0.61216 0 3 tcp 2040 ------- 0 0.0 3.0 18 38
- 0.61216 0 3 tcp 2040 ------- 0 0.0 3.0 18 38
r 0.61624 3 0 ack 40 ------- 0 3.0 0.0 2 21
+ 0.61624 0 3 tcp 2040 ------- 0 0.0 3.0 19 39
- 0.61624 0 3 tcp 2040 ------- 0 0.0 3.0 19 39
r 0.62032 3 0 ack 40 ------- 0 3.0 0.0 3 22
+ 0.62032 0 3 tcp 2040 ------- 0 0.0 3.0 20 40
- 0.62032 0 3 tcp 2040 ------- 0 0.0 3.0 20 40
r 0.6244 3 0 ack 40 ------- 0 3.0 0.0 4 23
+ 0.6244 0 3 tcp 2040 ------- 0 0.0 3.0 21 41
- 0.6244 0 3 tcp 2040 ------- 0 0.0 3.0 21 41
r 0.62848 3 0 ack 40 ------- 0 3.0 0.0 5 24
+ 0.62848 0 3 tcp 2040 ------- 0 0.0 3.0 22 42
- 0.62848 0 3 tcp 2040 ------- 0 0.0 3.0 22 42
r 0.63256 3 0 ack 40 ------- 0 3.0 0.0 6 25
+ 0.63256 0 3 tcp 2040 ------- 0 0.0 3.0 23 43
- 0.63256 0 3 tcp 2040 ------- 0 0.0 3.0 23 43
r 0.63664 3 0 ack 40 ------- 0 3.0 0.0 7 26
+ 0.63664 0 3 tcp 2040 ------- 0 0.0 3.0 24 44
- 0.63664 0 3 tcp 2040 ------- 0 0.0 3.0 24 44
r 0.64072 3 0 ack 40 ------- 0 3.0 0.0 8 27
+ 0.64072 0 3 tcp 2040 ------- 0 0.0 3.0 25 45
- 0.64072 0 3 tcp 2040 ------- 0 0.0 3.0 25 45
r 0.6448 3 0 ack 40 ------- 0 3.0 0.0 9 28
+ 0.6448 0 3 tcp 2040 ------- 0 0.0 3.0 26 46
- 0.6448 0 3 tcp 2040 ------- 0 0.0 3.0 26 46
r 0.64888 3 0 ack 40 ------- 0 3.0 0.0 10 29
+ 0.64888 0 3 tcp 2040 ------- 0 0.0 3.0 27 47
- 0.64888 0 3 tcp 2040 ------- 0 0.0 3.0 27 47
r 0.65296 3 0 ack 40 ------- 0 3.0 0.0 11 30
+ 0.65296 0 3 tcp 2040 ------- 0 0.0 3.0 28 48
- 0.65296 0 3 tcp 2040 ------- 0 0.0 3.0 28 48
r 0.65704 3 0 ack 40 ------- 0 3.0 0.0 12 31
+ 0.65704 0 3 tcp 2040 ------- 0 0.0 3.0 29 49
- 0.65704 0 3 tcp 2040 ------- 0 0.0 3.0 29 49
r 0.66112 3 0 ack 40 ------- 0 3.0 0.0 13 32
+ 0.66112 0 3 tcp 2040 ------- 0 0.0 3.0 30 50
- 0.66112 0 3 tcp 2040 ------- 0 0.0 3.0 30 50
r 0.6652 3 0 ack 40 ------- 0 3.0 0.0 14 33
+ 0.6652 0 3 tcp 2040 ------- 0 0.0 3.0 31 51
- 0.6652 0 3 tcp 2040 ------- 0 0.0 3.0 31 51
r 0.66928 3 0 ack 40 ------- 0 3.0 0.0 15 34
+ 0.66928 0 3 tcp 2040 ------- 0 0.0 3.0 32 52
- 0.66928 0 3 tcp 2040 ------- 0 0.0 3.0 32 52
r 0.67336 3 0 ack 40 ------- 0 3.0 0.0 16 35
+ 0.67336 0 3 tcp 2040 ------- 0 0.0 3.0 33 53
- 0.67336 0 3 tcp 2040 ------- 0 0.0 3.0 33 53
r 0.71416 0 3 tcp 2040 ------- 0 0.0 3.0 17 36
+ 0.71416 3 0 ack 40 ------- 0 3.0 0.0 17 54
- 0.71416 3 0 ack 40 ------- 0 3.0 0.0 17 54
r 0.71416 1 2 tcp 2040 ------- 1 1.0 2.0 1 37
+ 0.71416 2 1 ack 40 ------- 1 2.0 1.0 1 55
- 0.71416 2 1 ack 40 ------- 1 2.0 1.0 1 55
r 0.71824 0 3 tcp 2040 ------- 0 0.0 3.0 18 38
+ 0.71824 3 0 ack 40 ------- 0 3.0 0.0 18 56
- 0.71824 3 0 ack 40 ------- 0 3.0 0.0 18 56
r 0.72232 0 3 tcp 2040 ------- 0 0.0 3.0 19 39
+ 0.72232 3 0 ack 40 ------- 0 3.0 0.0 19 57
- 0.72232 3 0 ack 40 ------- 0 3.0 0.0 19 57
r 0.7264 0 3 tcp 2040 ------- 0 0.0 3.0 20 40
+ 0.7264 3 0 ack 40 ------- 0 3.0 0.0 20 58
- 0.7264 3 0 ack 40 ------- 0 3.0 0.0 20 58
r 0.73048 0 3 tcp 2040 ------- 0 0.0 3.0 21 41
+ 0.73048 3 0 ack 40 ------- 0 3.0 0.0 21 59
- 0.73048 3 0 ack 40 ------- 0 3.0 0.0 21 59
r 0.73456 0 3 tcp 2040 ------- 0 0.0 3.0 22 42
+ 0.73456 3 0 ack 40 ------- 0 3.0 0.0 22 60
- 0.73456 3 0 ack 40 ------- 0 3.0 0.0 22 60
r 0.73864 0 3 tcp 2040 ------- 0 0.0 3.0 23 43
+ 0.73864 3 0 ack 40 ------- 0 3.0 0.0 23 61
- 0.73864 3 0 ack 40 ------- 0 3.0 0.0 23 61
r 0.74272 0 3 tcp 2040 ------- 0 0.0 3.0 24 44
+ 0.74272 3 0 ack 40 ------- 0 3.0 0.0 24 62
- 0.74272 3 0 ack 40 ------- 0 3.0 0.0 24 62
r 0.7468 0 3 tcp 2040 ------- 0 0.0 3.0 25 45
+ 0.7468 3 0 ack 40 ------- 0 3.0 0.0 25 63
- 0.7468 3 0 ack 40 ------- 0 3.0 0.0 25 63
r 0.75088 0 3 tcp 2040 ------- 0 0.0 3.0 26 46
+ 0.75088 3 0 ack 40 ------- 0 3.0 0.0 26 64
- 0.75088 3 0 ack 40 ------- 0 3.0 0.0 26 64
r 0.75496 0 3 tcp 2040 ------- 0 0.0 3.0 27 47
+ 0.75496 3 0 ack 40 ------- 0 3.0 0.0 27 65
- 0.75496 3 0 ack 40 ------- 0 3.0 0.0 27 65
r 0.75904 0 3 tcp 2040 ------- 0 0.0 3.0 28 48
+ 0.75904 3 0 ack 40 ------- 0 3.0 0.0 28 66
- 0.75904 3 0 ack 40 ------- 0 3.0 0.0 28 66
r 0.76312 0 3 tcp 2040 ------- 0 0.0 3.0 29 49
+ 0.76312 3 0 ack 40 ------- 0 3.0 0.0 29 67
- 0.76312 3 0 ack 40 ------- 0 3.0 0.0 29 67
r 0.7672 0 3 tcp 2040 ------- 0 0.0 3.0 30 50
+ 0.7672 3 0 ack 40 ------- 0 3.0 0.0 30 68
- 0.7672 3 0 ack 40 ------- 0 3.0 0.0 30 68
r 0.77128 0 3 tcp 2040 ------- 0 0.0 3.0 31 51
+ 0.77128 3 0 ack 40 ------- 0 3.0 0.0 31 69
- 0.77128 3 0 ack 40 ------- 0 3.0 0.0 31 69
r 0.77536 0 3 tcp 2040 ------- 0 0.0 3.0 32 52
+ 0.77536 3 0 ack 40 ------- 0 3.0 0.0 32 70
- 0.77536 3 0 ack 40 ------- 0 3.0 0.0 32 70
r 0.77944 0 3 tcp 2040 ------- 0 0.0 3.0 33 53
+ 0.77944 3 0 ack 40 ------- 0 3.0 0.0 33 71
- 0.77944 3 0 ack 40 ------- 0 3.0 0.0 33 71
0.80000000000000004 1.3872
r 0.81624 3 0 ack 40 ------- 0 3.0 0.0 17 54
+ 0.81624 0 3 tcp 2040 ------- 0 0.0 3.0 34 72
- 0.81624 0 3 tcp 2040 ------- 0 0.0 3.0 34 72
r 0.81624 2 1 ack 40 ------- 1 2.0 1.0 1 55
+ 0.81624 1 2 tcp 2040 ------- 1 1.0 2.0 2 73
- 0.81624 1 2 tcp 2040 ------- 1 1.0 2.0 2 73
r 0.82032 3 0 ack 40 ------- 0 3.0 0.0 18 56
+ 0.82032 0 3 tcp 2040 ------- 0 0.0 3.0 35 74
- 0.82032 0 3 tcp 2040 ------- 0 0.0 3.0 35 74
r 0.8244 3 0 ack 40 ------- 0 3.0 0.0 19 57
+ 0.8244 0 3 tcp 2040 ------- 0 0.0 3.0 36 75
- 0.8244 0 3 tcp 2040 ------- 0 0.0 3.0 36 75
r 0.82848 3 0 ack 40 ------- 0 3.0 0.0 20 58
+ 0.82848 0 3 tcp 2040 ------- 0 0.0 3.0 37 76
- 0.82848 0 3 tcp 2040 ------- 0 0.0 3.0 37 76
r 0.83256 3 0 ack 40 ------- 0 3.0 0.0 21 59
+ 0.83256 0 3 tcp 2040 ------- 0 0.0 3.0 38 77
- 0.83256 0 3 tcp 2040 ------- 0 0.0 3.0 38 77
r 0.83664 3 0 ack 40 ------- 0 3.0 0.0 22 60
+ 0.83664 0 3 tcp 2040 ------- 0 0.0 3.0 39 78
- 0.83664 0 3 tcp 2040 ------- 0 0.0 3.0 39 78
r 0.84072 3 0 ack 40 ------- 0 3.0 0.0 23 61
+ 0.84072 0 3 tcp 2040 ------- 0 0.0 3.0 40 79
- 0.84072 0 3 tcp 2040 ------- 0 0.0 3.0 40 79
r 0.8448 3 0 ack 40 ------- 0 3.0 0.0 24 62
+ 0.8448 0 3 tcp 2040 ------- 0 0.0 3.0 41 80
- 0.8448 0 3 tcp 2040 ------- 0 0.0 3.0 41 80
r 0.84888 3 0 ack 40 ------- 0 3.0 0.0 25 63
+ 0.84888 0 3 tcp 2040 ------- 0 0.0 3.0 42 81
- 0.84888 0 3 tcp 2040 ------- 0 0.0 3.0 42 81
r 0.85296 3 0 ack 40 ------- 0 3.0 0.0 26 64
+ 0.85296 0 3 tcp 2040 ------- 0 0.0 3.0 43 82
- 0.85296 0 3 tcp 2040 ------- 0 0.0 3.0 43 82
r 0.85704 3 0 ack 40 ------- 0 3.0 0.0 27 65
+ 0.85704 0 3 tcp 2040 ------- 0 0.0 3.0 44 83
- 0.85704 0 3 tcp 2040 ------- 0 0.0 3.0 44 83
r 0.86112 3 0 ack 40 ------- 0 3.0 0.0 28 66
+ 0.86112 0 3 tcp 2040 ------- 0 0.0 3.0 45 84
- 0.86112 0 3 tcp 2040 ------- 0 0.0 3.0 45 84
r 0.8652 3 0 ack 40 ------- 0 3.0 0.0 29 67
+ 0.8652 0 3 tcp 2040 ------- 0 0.0 3.0 46 85
- 0.8652 0 3 tcp 2040 ------- 0 0.0 3.0 46 85
r 0.86928 3 0 ack 40 ------- 0 3.0 0.0 30 68
+ 0.86928 0 3 tcp 2040 ------- 0 0.0 3.0 47 86
- 0.86928 0 3 tcp 2040 ------- 0 0.0 3.0 47 86
r 0.87336 3 0 ack 40 ------- 0 3.0 0.0 31 69
+ 0.87336 0 3 tcp 2040 ------- 0 0.0 3.0 48 87
- 0.87336 0 3 tcp 2040 ------- 0 0.0 3.0 48 87
r 0.87744 3 0 ack 40 ------- 0 3.0 0.0 32 70
+ 0.87744 0 3 tcp 2040 ------- 0 0.0 3.0 49 88
- 0.87744 0 3 tcp 2040 ------- 0 0.0 3.0 49 88
r 0.88152 3 0 ack 40 ------- 0 3.0 0.0 33 71
+ 0.88152 0 3 tcp 2040 ------- 0 0.0 3.0 50 89
- 0.88152 0 3 tcp 2040 ------- 0 0.0 3.0 50 89
r 0.92232 0 3 tcp 2040 ------- 0 0.0 3.0 34 72
+ 0.92232 3 0 ack 40 ------- 0 3.0 0.0 34 90
- 0.92232 3 0 ack 40 ------- 0 3.0 0.0 34 90
r 0.92232 1 2 tcp 2040 ------- 1 1.0 2.0 2 73
+ 0.92232 2 1 ack 40 ------- 1 2.0 1.0 2 91
- 0.92232 2 1 ack 40 ------- 1 2.0 1.0 2 91
r 0.9264 0 3 tcp 2040 ------- 0 0.0 3.0 35 74
+ 0.9264 3 0 ack 40 ------- 0 3.0 0.0 35 92
- 0.9264 3 0 ack 40 ------- 0 3.0 0.0 35 92
r 0.93048 0 3 tcp 2040 ------- 0 0.0 3.0 36 75
+ 0.93048 3 0 ack 40 ------- 0 3.0 0.0 36 93
- 0.93048 3 0 ack 40 ------- 0 3.0 0.0 36 93
r 0.93456 0 3 tcp 2040 ------- 0 0.0 3.0 37 76
+ 0.93456 3 0 ack 40 ------- 0 3.0 0.0 37 94
- 0.93456 3 0 ack 40 ------- 0 3.0 0.0 37 94
r 0.93864 0 3 tcp 2040 ------- 0 0.0 3.0 38 77
+ 0.93864 3 0 ack 40 ------- 0 3.0 0.0 38 95
- 0.93864 3 0 ack 40 ------- 0 3.0 0.0 38 95
r 0.94272 0 3 tcp 2040 ------- 0 0.0 3.0 39 78
+ 0.94272 3 0 ack 40 ------- 0 3.0 0.0 39 96
- 0.94272 3 0 ack 40 ------- 0 3.0 0.0 39 96
r 0.9468 0 3 tcp 2040 ------- 0 0.0 3.0 40 79
+ 0.9468 3 0 ack 40 ------- 0 3.0 0.0 40 97
- 0.9468 3 0 ack 40 ------- 0 3.0 0.0 40 97
r 0.95088 0 3 tcp 2040 ------- 0 0.0 3.0 41 80
+ 0.95088 3 0 ack 40 ------- 0 3.0 0.0 41 98
- 0.95088 3 0 ack 40 ------- 0 3.0 0.0 41 98
r 0.95496 0 3 tcp 2040 ------- 0 0.0 3.0 42 81
+ 0.95496 3 0 ack 40 ------- 0 3.0 0.0 42 99
- 0.95496 3 0 ack 40 ------- 0 3.0 0.0 42 99
r 0.95904 0 3 tcp 2040 ------- 0 0.0 3.0 43 82
+ 0.95904 3 0 ack 40 ------- 0 3.0 0.0 43 100
- 0.95904 3 0 ack 40 ------- 0 3.0 0.0 43 100
r 0.96312 0 3 tcp 2040 ------- 0 0.0 3.0 44 83
+ 0.96312 3 0 ack 40 ------- 0 3.0 0.0 44 101
- 0.96312 3 0 ack 40 ------- 0 3.0 0.0 44 101
r 0.9672 0 3 tcp 2040 ------- 0 0.0 3.0 45 84
+ 0.9672 3 0 ack 40 ------- 0 3.0 0.0 45 102
- 0.9672 3 0 ack 40 ------- 0 3.0 0.0 45 102
r 0.97128 0 3 tcp 2040 ------- 0 0.0 3.0 46 85
+ 0.97128 3 0 ack 40 ------- 0 3.0 0.0 46 103
- 0.97128 3 0 ack 40 ------- 0 3.0 0.0 46 103
r 0.97536 0 3 tcp 2040 ------- 0 0.0 3.0 47 86
+ 0.97536 3 0 ack 40 ------- 0 3.0 0.0 47 104
- 0.97536 3 0 ack 40 ------- 0 3.0 0.0 47 104
r 0.97944 0 3 tcp 2040 ------- 0 0.0 3.0 48 87
+ 0.97944 3 0 ack 40 ------- 0 3.0 0.0 48 105
- 0.97944 3 0 ack 40 ------- 0 3.0 0.0 48 105
r 0.98352 0 3 tcp 2040 ------- 0 0.0 3.0 49 88
+ 0.98352 3 0 ack 40 ------- 0 3.0 0.0 49 106
- 0.98352 3 0 ack 40 ------- 0 3.0 0.0 49 106
r 0.9876 0 3 tcp 2040 ------- 0 0.0 3.0 50 89
+ 0.9876 3 0 ack 40 ------- 0 3.0 0.0 50 107
- 0.9876 3 0 ack 40 ------- 0 3.0 0.0 50 107
1 1.3872
r 1.0244 3 0 ack 40 ------- 0 3.0 0.0 34 90
+ 1.0244 0 3 tcp 2040 ------- 0 0.0 3.0 51 108
- 1.0244 0 3 tcp 2040 ------- 0 0.0 3.0 51 108
r 1.0244 2 1 ack 40 ------- 1 2.0 1.0 2 91
+ 1.0244 1 2 tcp 2040 ------- 1 1.0 2.0 3 109
- 1.0244 1 2 tcp 2040 ------- 1 1.0 2.0 3 109
r 1.02848 3 0 ack 40 ------- 0 3.0 0.0 35 92
+ 1.02848 0 3 tcp 2040 ------- 0 0.0 3.0 52 110
- 1.02848 0 3 tcp 2040 ------- 0 0.0 3.0 52 110
r 1.03256 3 0 ack 40 ------- 0 3.0 0.0 36 93
+ 1.03256 0 3 tcp 2040 ------- 0 0.0 3.0 53 111
- 1.03256 0 3 tcp 2040 ------- 0 0.0 3.0 53 111
r 1.03664 3 0 ack 40 ------- 0 3.0 0.0 37 94
+ 1.03664 0 3 tcp 2040 ------- 0 0.0 3.0 54 112
- 1.03664 0 3 tcp 2040 ------- 0 0.0 3.0 54 112
r 1.04072 3 0 ack 40 ------- 0 3.0 0.0 38 95
+ 1.04072 0 3 tcp 2040 ------- 0 0.0 3.0 55 113
- 1.04072 0 3 tcp 2040 ------- 0 0.0 3.0 55 113
r 1.0448 3 0 ack 40 ------- 0 3.0 0.0 39 96
+ 1.0448 0 3 tcp 2040 ------- 0 0.0 3.0 56 114
- 1.0448 0 3 tcp 2040 ------- 0 0.0 3.0 56 114
r 1.04888 3 0 ack 40 ------- 0 3.0 0.0 40 97
+ 1.04888 0 3 tcp 2040 ------- 0 0.0 3.0 57 115
- 1.04888 0 3 tcp 2040 ------- 0 0.0 3.0 57 115
r 1.05296 3 0 ack 40 ------- 0 3.0 0.0 41 98
+ 1.05296 0 3 tcp 2040 ------- 0 0.0 3.0 58 116
- 1.05296 0 3 tcp 2040 ------- 0 0.0 3.0 58 116
r 1.05704 3 0 ack 40 ------- 0 3.0 0.0 42 99
+ 1.05704 0 3 tcp 2040 ------- 0 0.0 3.0 59 117
- 1.05704 0 3 tcp 2040 ------- 0 0.0 3.0 59 117
r 1.06112 3 0 ack 40 ------- 0 3.0 0.0 43 100
+ 1.06112 0 3 tcp 2040 ------- 0 0.0 3.0 60 118
- 1.06112 0 3 tcp 2040 ------- 0 0.0 3.0 60 118
r 1.0652 3 0 ack 40 ------- 0 3.0 0.0 44 101
+ 1.0652 0 3 tcp 2040 ------- 0 0.0 3.0 61 119
- 1.0652 0 3 tcp 2040 ------- 0 0.0 3.0 61 119
r 1.06928 3 0 ack 40 ------- 0 3.0 0.0 45 102
+ 1.06928 0 3 tcp 2040 ------- 0 0.0 3.0 62 120
- 1.06928 0 3 tcp 2040 ------- 0 0.0 3.0 62 120
r 1.07336 3 0 ack 40 ------- 0 3.0 0.0 46 103
+ 1.07336 0 3 tcp 2040 ------- 0 0.0 3.0 63 121
- 1.07336 0 3 tcp 2040 ------- 0 0.0 3.0 63 121
r 1.07744 3 0 ack 40 ------- 0 3.0 0.0 47 104
+ 1.07744 0 3 tcp 2040 ------- 0 0.0 3.0 64 122
- 1.07744 0 3 tcp 2040 ------- 0 0.0 3.0 64 122
r 1.08152 3 0 ack 40 ------- 0 3.0 0.0 48 105
+ 1.08152 0 3 tcp 2040 ------- 0 0.0 3.0 65 123
- 1.08152 0 3 tcp 2040 ------- 0 0.0 3.0 65 123
r 1.0856 3 0 ack 40 ------- 0 3.0 0.0 49 106
+ 1.0856 0 3 tcp 2040 ------- 0 0.0 3.0 66 124
- 1.0856 0 3 tcp 2040 ------- 0 0.0 3.0 66 124
r 1.08968 3 0 ack 40 ------- 0 3.0 0.0 50 107
+ 1.08968 0 3 tcp 2040 ------- 0 0.0 3.0 67 125
- 1.08968 0 3 tcp 2040 ------- 0 0.0 3.0 67 125
r 1.13048 0 3 tcp 2040 ------- 0 0.0 3.0 51 108
+ 1.13048 3 0 ack 40 ------- 0 3.0 0.0 51 126
- 1.13048 3 0 ack 40 ------- 0 3.0 0.0 51 126
r 1.13048 1 2 tcp 2040 ------- 1 1.0 2.0 3 109
+ 1.13048 2 1 ack 40 ------- 1 2.0 1.0 3 127
- 1.13048 2 1 ack 40 ------- 1 2.0 1.0 3 127
r 1.13456 0 3 tcp 2040 ------- 0 0.0 3.0 52 110
+ 1.13456 3 0 ack 40 ------- 0 3.0 0.0 52 128
- 1.13456 3 0 ack 40 ------- 0 3.0 0.0 52 128
r 1.13864 0 3 tcp 2040 ------- 0 0.0 3.0 53 111
+ 1.13864 3 0 ack 40 ------- 0 3.0 0.0 53 129
- 1.13864 3 0 ack 40 ------- 0 3.0 0.0 53 129
r 1.14272 0 3 tcp 2040 ------- 0 0.0 3.0 54 112
+ 1.14272 3 0 ack 40 ------- 0 3.0 0.0 54 130
- 1.14272 3 0 ack 40 ------- 0 3.0 0.0 54 130
r 1.1468 0 3 tcp 2040 ------- 0 0.0 3.0 55 113
+ 1.1468 3 0 ack 40 ------- 0 3.0 0.0 55 131
- 1.1468 3 0 ack 40 ------- 0 3.0 0.0 55 131
r 1.15088 0 3 tcp 2040 ------- 0 0.0 3.0 56 114
+ 1.15088 3 0 ack 40 ------- 0 3.0 0.0 56 132
- 1.15088 3 0 ack 40 ------- 0 3.0 0.0 56 132
r 1.15496 0 3 tcp 2040 ------- 0 0.0 3.0 57 115
+ 1.15496 3 0 ack 40 ------- 0 3.0 0.0 57 133
- 1.15496 3 0 ack 40 ------- 0 3.0 0.0 57 133
r 1.15904 0 3 tcp 2040 ------- 0 0.0 3.0 58 116
+ 1.15904 3 0 ack 40 ------- 0 3.0 0.0 58 134
- 1.15904 3 0 ack 40 ------- 0 3.0 0.0 58 134
r 1.16312 0 3 tcp 2040 ------- 0 0.0 3.0 59 117
+ 1.16312 3 0 ack 40 ------- 0 3.0 0.0 59 135
- 1.16312 3 0 ack 40 ------- 0 3.0 0.0 59 135
r 1.1672 0 3 tcp 2040 ------- 0 0.0 3.0 60 118
+ 1.1672 3 0 ack 40 ------- 0 3.0 0.0 60 136
- 1.1672 3 0 ack 40 ------- 0 3.0 0.0 60 136
r 1.17128 0 3 tcp 2040 ------- 0 0.0 3.0 61 119
+ 1.17128 3 0 ack 40 ------- 0 3.0 0.0 61 137
- 1.17128 3 0 ack 40 ------- 0 3.0 0.0 61 137
r 1.17536 0 3 tcp 2040 ------- 0 0.0 3.0 62 120
+ 1.17536 3 0 ack 40 ------- 0 3.0 0.0 62 138
- 1.17536 3 0 ack 40 ------- 0 3.0 0.0 62 138
r 1.17944 0 3 tcp 2040 ------- 0 0.0 3.0 63 121
+ 1.17944 3 0 ack 40 ------- 0 3.0 0.0 63 139
- 1.17944 3 0 ack 40 ------- 0 3.0 0.0 63 139
r 1.18352 0 3 tcp 2040 ------- 0 0.0 3.0 64 122
+ 1.18352 3 0 ack 40 ------- 0 3.0 0.0 64 140
- 1.18352 3 0 ack 40 ------- 0 3.0 0.0 64 140
r 1.1876 0 3 tcp 2040 ------- 0 0.0 3.0 65 123
+ 1.1876 3 0 ack 40 ------- 0 3.0 0.0 65 141
- 1.1876 3 0 ack 40 ------- 0 3.0 0.0 65 141
r 1.19168 0 3 tcp 2040 ------- 0 0.0 3.0 66 124
+ 1.19168 3 0 ack 40 ------- 0 3.0 0.0 66 142
- 1.19168 3 0 ack 40 ------- 0 3.0 0.0 66 142
r 1.19576 0 3 tcp 2040 ------- 0 0.0 3.0 67 125
+ 1.19576 3 0 ack 40 ------- 0 3.0 0.0 67 143
- 1.19576 3 0 ack 40 ------- 0 3.0 0.0 67 143
1.2 1.3872
r 1.23256 3 0 ack 40 ------- 0 3.0 0.0 51 126
+ 1.23256 0 3 tcp 2040 ------- 0 0.0 3.0 68 144
- 1.23256 0 3 tcp 2040 ------- 0 0.0 3.0 68 144
r 1.23256 2 1 ack 40 ------- 1 2.0 1.0 3 127
+ 1.23256 1 2 tcp 2040 ------- 1 1.0 2.0 4 145
- 1.23256 1 2 tcp 2040 ------- 1 1.0 2.0 4 145
r 1.23664 3 0 ack 40 ------- 0 3.0 0.0 52 128
+ 1.23664 0 3 tcp 2040 ------- 0 0.0 3.0 69 146
- 1.23664 0 3 tcp 2040 ------- 0 0.0 3.0 69 146
r 1.24072 3 0 ack 40 ------- 0 3.0 0.0 53 129
+ 1.24072 0 3 tcp 2040 ------- 0 0.0 3.0 70 147
- 1.24072 0 3 tcp 2040 ------- 0 0.0 3.0 70 147
r 1.2448 3 0 ack 40 ------- 0 3.0 0.0 54 130
+ 1.2448 0 3 tcp 2040 ------- 0 0.0 3.0 71 148
- 1.2448 0 3 tcp 2040 ------- 0 0.0 3.0 71 148
r 1.24888 3 0 ack 40 ------- 0 3.0 0.0 55 131
+ 1.24888 0 3 tcp 2040 ------- 0 0.0 3.0 72 149
- 1.24888 0 3 tcp 2040 ------- 0 0.0 3.0 72 149
r 1.25296 3 0 ack 40 ------- 0 3.0 0.0 56 132
+ 1.25296 0 3 tcp 2040 ------- 0 0.0 3.0 73 150
- 1.25296 0 3 tcp 2040 ------- 0 0.0 3.0 73 150
r 1.25704 3 0 ack 40 ------- 0 3.0 0.0 57 133
+ 1.25704 0 3 tcp 2040 ------- 0 0.0 3.0 74 151
- 1.25704 0 3 tcp 2040 ------- 0 0.0 3.0 74 151
r 1.26112 3 0 ack 40 ------- 0 3.0 0.0 58 134
+ 1.26112 0 3 tcp 2040 ------- 0 0.0 3.0 75 152
- 1.26112 0 3 tcp 2040 ------- 0 0.0 3.0 75 152
r 1.2652 3 0 ack 40 ------- 0 3.0 0.0 59 135
+ 1.2652 0 3 tcp 2040 ------- 0 0.0 3.0 76 153
- 1.2652 0 3 tcp 2040 ------- 0 0.0 3.0 76 153
r 1.26928 3 0 ack 40 ------- 0 3.0 0.0 60 136
+ 1.26928 0 3 tcp 2040 ------- 0 0.0 3.0 77 154
- 1.26928 0 3 tcp 2040 ------- 0 0.0 3.0 77 154
r 1.27336 3 0 ack 40 ------- 0 3.0 0.0 61 137
+ 1.27336 0 3 tcp 2040 ------- 0 0.0 3.0 78 155
- 1.27336 0 3 tcp 2040 ------- 0 0.0 3.0 78 155
r 1.27744 3 0 ack 40 ------- 0 3.0 0.0 62 138
+ 1.27744 0 3 tcp 2040 ------- 0 0.0 3.0 79 156
- 1.27744 0 3 tcp 2040 ------- 0 0.0 3.0 79 156
r 1.28152 3 0 ack 40 ------- 0 3.0 0.0 63 139
+ 1.28152 0 3 tcp 2040 ------- 0 0.0 3.0 80 157
- 1.28152 0 3 tcp 2040 ------- 0 0.0 3.0 80 157
r 1.2856 3 0 ack 40 ------- 0 3.0 0.0 64 140
+ 1.2856 0 3 tcp 2040 ------- 0 0.0 3.0 81 158
- 1.2856 0 3 tcp 2040 ------- 0 0.0 3.0 81 158
r 1.28968 3 0 ack 40 ------- 0 3.0 0.0 65 141
+ 1.28968 0 3 tcp 2040 ------- 0 0.0 3.0 82 159
- 1.28968 0 3 tcp 2040 ------- 0 0.0 3.0 82 159
r 1.29376 3 0 ack 40 ------- 0 3.0 0.0 66 142
+ 1.29376 0 3 tcp 2040 ------- 0 0.0 3.0 83 160
- 1.29376 0 3 tcp 2040 ------- 0 0.0 3.0 83 160
r 1.29784 3 0 ack 40 ------- 0 3.0 0.0 67 143
+ 1.29784 0 3 tcp 2040 ------- 0 0.0 3.0 84 161
- 1.29784 0 3 tcp 2040 ------- 0 0.0 3.0 84 161
r 1.33864 0 3 tcp 2040 ------- 0 0.0 3.0 68 144
+ 1.33864 3 0 ack 40 ------- 0 3.0 0.0 68 162
- 1.33864 3 0 ack 40 ------- 0 3.0 0.0 68 162
r 1.33864 1 2 tcp 2040 ------- 1 1.0 2.0 4 145
+ 1.33864 2 1 ack 40 ------- 1 2.0 1.0 4 163
- 1.33864 2 1 ack 40 ------- 1 2.0 1.0 4 163
r 1.34272 0 3 tcp 2040 ------- 0 0.0 3.0 69 146
+ 1.34272 3 0 ack 40 ------- 0 3.0 0.0 69 164
- 1.34272 3 0 ack 40 ------- 0 3.0 0.0 69 164
r 1.3468 0 3 tcp 2040 ------- 0 0.0 3.0 70 147
+ 1.3468 3 0 ack 40 ------- 0 3.0 0.0 70 165
- 1.3468 3 0 ack 40 ------- 0 3.0 0.0 70 165
r 1.35088 0 3 tcp 2040 ------- 0 0.0 3.0 71 148
+ 1.35088 3 0 ack 40 ------- 0 3.0 0.0 71 166
- 1.35088 3 0 ack 40 ------- 0 3.0 0.0 71 166
r 1.35496 0 3 tcp 2040 ------- 0 0.0 3.0 72 149
+ 1.35496 3 0 ack 40 ------- 0 3.0 0.0 72 167
- 1.35496 3 0 ack 40 ------- 0 3.0 0.0 72 167
r 1.35904 0 3 tcp 2040 ------- 0 0.0 3.0 73 150
+ 1.35904 3 0 ack 40 ------- 0 3.0 0.0 73 168
- 1.35904 3 0 ack 40 ------- 0 3.0 0.0 73 168
r 1.36312 0 3 tcp 2040 ------- 0 0.0 3.0 74 151
+ 1.36312 3 0 ack 40 ------- 0 3.0 0.0 74 169
- 1.36312 3 0 ack 40 ------- 0 3.0 0.0 74 169
r 1.3672 0 3 tcp 2040 ------- 0 0.0 3.0 75 152
+ 1.3672 3 0 ack 40 ------- 0 3.0 0.0 75 170
- 1.3672 3 0 ack 40 ------- 0 3.0 0.0 75 170
r 1.37128 0 3 tcp 2040 ------- 0 0.0 3.0 76 153
+ 1.37128 3 0 ack 40 ------- 0 3.0 0.0 76 171
- 1.37128 3 0 ack 40 ------- 0 3.0 0.0 76 171
r 1.37536 0 3 tcp 2040 ------- 0 0.0 3.0 77 154
+ 1.37536 3 0 ack 40 ------- 0 3.0 0.0 77 172
- 1.37536 3 0 ack 40 ------- 0 3.0 0.0 77 172
r 1.37944 0 3 tcp 2040 ------- 0 0.0 3.0 78 155
+ 1.37944 3 0 ack 40 ------- 0 3.0 0.0 78 173
- 1.37944 3 0 ack 40 ------- 0 3.0 0.0 78 173
r 1.38352 0 3 tcp 2040 ------- 0 0.0 3.0 79 156
+ 1.38352 3 0 ack 40 ------- 0 3.0 0.0 79 174
- 1.38352 3 0 ack 40 ------- 0 3.0 0.0 79 174
r 1.3876 0 3 tcp 2040 ------- 0 0.0 3.0 80 157
+ 1.3876 3 0 ack 40 ------- 0 3.0 0.0 80 175
- 1.3876 3 0 ack 40 ------- 0 3.0 0.0 80 175
r 1.39168 0 3 tcp 2040 ------- 0 0.0 3.0 81 158
+ 1.39168 3 0 ack 40 ------- 0 3.0 0.0 81 176
- 1.39168 3 0 ack 40 ------- 0 3.0 0.0 81 176
r 1.39576 0 3 tcp 2040 ------- 0 0.0 3.0 82 159
+ 1.39576 3 0 ack 40 ------- 0 3.0 0.0 82 177
- 1.39576 3 0 ack 40 ------- 0 3.0 0.0 82 177
r 1.39984 0 3 tcp 2040 ------- 0 0.0 3.0 83 160
+ 1.39984 3 0 ack 40 ------- 0 3.0 0.0 83 178
- 1.39984 3 0 ack 40 ------- 0 3.0 0.0 83 178
1.3999999999999999 1.3056000000000001
r 1.40392 0 3 tcp 2040 ------- 0 0.0 3.0 84 161
+ 1.40392 3 0 ack 40 ------- 0 3.0 0.0 84 179
- 1.40392 3 0 ack 40 ------- 0 3.0 0.0 84 179
r 1.44072 3 0 ack 40 ------- 0 3.0 0.0 68 162
+ 1.44072 0 3 tcp 2040 ------- 0 0.0 3.0 85 180
- 1.44072 0 3 tcp 2040 ------- 0 0.0 3.0 85 180
r 1.44072 2 1 ack 40 ------- 1 2.0 1.0 4 163
+ 1.44072 1 2 tcp 2040 ------- 1 1.0 2.0 5 181
- 1.44072 1 2 tcp 2040 ------- 1 1.0 2.0 5 181
r 1.4448 3 0 ack 40 ------- 0 3.0 0.0 69 164
+ 1.4448 0 3 tcp 2040 ------- 0 0.0 3.0 86 182
- 1.4448 0 3 tcp 2040 ------- 0 0.0 3.0 86 182
r 1.44888 3 0 ack 40 ------- 0 3.0 0.0 70 165
+ 1.44888 0 3 tcp 2040 ------- 0 0.0 3.0 87 183
- 1.44888 0 3 tcp 2040 ------- 0 0.0 3.0 87 183
r 1.45296 3 0 ack 40 ------- 0 3.0 0.0 71 166
+ 1.45296 0 3 tcp 2040 ------- 0 0.0 3.0 88 184
- 1.45296 0 3 tcp 2040 ------- 0 0.0 3.0 88 184
r 1.45704 3 0 ack 40 ------- 0 3.0 0.0 72 167
+ 1.45704 0 3 tcp 2040 ------- 0 0.0 3.0 89 185
- 1.45704 0 3 tcp 2040 ------- 0 0.0 3.0 89 185
r 1.46112 3 0 ack 40 ------- 0 3.0 0.0 73 168
+ 1.46112 0 3 tcp 2040 ------- 0 0.0 3.0 90 186
- 1.46112 0 3 tcp 2040 ------- 0 0.0 3.0 90 186
r 1.4652 3 0 ack 40 ------- 0 3.0 0.0 74 169
+ 1.4652 0 3 tcp 2040 ------- 0 0.0 3.0 91 187
- 1.4652 0 3 tcp 2040 ------- 0 0.0 3.0 91 187
r 1.46928 3 0 ack 40 ------- 0 3.0 0.0 75 170
+ 1.46928 0 3 tcp 2040 ------- 0 0.0 3.0 92 188
- 1.46928 0 3 tcp 2040 ------- 0 0.0 3.0 92 188
r 1.47336 3 0 ack 40 ------- 0 3.0 0.0 76 171
+ 1.47336 0 3 tcp 2040 ------- 0 0.0 3.0 93 189
- 1.47336 0 3 tcp 2040 ------- 0 0.0 3.0 93 189
r 1.47744 3 0 ack 40 ------- 0 3.0 0.0 77 172
+ 1.47744 0 3 tcp 2040 ------- 0 0.0 3.0 94 190
- 1.47744 0 3 tcp 2040 ------- 0 0.0 3.0 94 190
r 1.48152 3 0 ack 40 ------- 0 3.0 0.0 78 173
+ 1.48152 0 3 tcp 2040 ------- 0 0.0 3.0 95 191
- 1.48152 0 3 tcp 2040 ------- 0 0.0 3.0 95 191
r 1.4856 3 0 ack 40 ------- 0 3.0 0.0 79 174
+ 1.4856 0 3 tcp 2040 ------- 0 0.0 3.0 96 192
- 1.4856 0 3 tcp 2040 ------- 0 0.0 3.0 96 192
r 1.48968 3 0 ack 40 ------- 0 3.0 0.0 80 175
+ 1.48968 0 3 tcp 2040 ------- 0 0.0 3.0 97 193
- 1.48968 0 3 tcp 2040 ------- 0 0.0 3.0 97 193
r 1.49376 3 0 ack 40 ------- 0 3.0 0.0 81 176
+ 1.49376 0 3 tcp 2040 ------- 0 0.0 3.0 98 194
- 1.49376 0 3 tcp 2040 ------- 0 0.0 3.0 98 194
r 1.49784 3 0 ack 40 ------- 0 3.0 0.0 82 177
+ 1.49784 0 3 tcp 2040 ------- 0 0.0 3.0 99 195
- 1.49784 0 3 tcp 2040 ------- 0 0.0 3.0 99 195
r 1.50192 3 0 ack 40 ------- 0 3.0 0.0 83 178
+ 1.50192 0 3 tcp 2040 ------- 0 0.0 3.0 100 196
- 1.50192 0 3 tcp 2040 ------- 0 0.0 3.0 100 196
r 1.506 3 0 ack 40 ------- 0 3.0 0.0 84 179
+ 1.506 0 3 tcp 2040 ------- 0 0.0 3.0 101 197
- 1.506 0 3 tcp 2040 ------- 0 0.0 3.0 101 197
r 1.5468 0 3 tcp 2040 ------- 0 0.0 3.0 85 180
+ 1.5468 3 0 ack 40 ------- 0 3.0 0.0 85 198
- 1.5468 3 0 ack 40 ------- 0 3.0 0.0 85 198
r 1.5468 1 2 tcp 2040 ------- 1 1.0 2.0 5 181
+ 1.5468 2 1 ack 40 ------- 1 2.0 1.0 5 199
- 1.5468 2 1 ack 40 ------- 1 2.0 1.0 5 199
r 1.55088 0 3 tcp 2040 ------- 0 0.0 3.0 86 182
+ 1.55088 3 0 ack 40 ------- 0 3.0 0.0 86 200
- 1.55088 3 0 ack 40 ------- 0 3.0 0.0 86 200
r 1.55496 0 3 tcp 2040 ------- 0 0.0 3.0 87 183
+ 1.55496 3 0 ack 40 ------- 0 3.0 0.0 87 201
- 1.55496 3 0 ack 40 ------- 0 3.0 0.0 87 201
r 1.55904 0 3 tcp 2040 ------- 0 0.0 3.0 88 184
+ 1.55904 3 0 ack 40 ------- 0 3.0 0.0 88 202
- 1.55904 3 0 ack 40 ------- 0 3.0 0.0 88 202
r 1.56312 0 3 tcp 2040 ------- 0 0.0 3.0 89 185
+ 1.56312 3 0 ack 40 ------- 0 3.0 0.0 89 203
- 1.56312 3 0 ack 40 ------- 0 3.0 0.0 89 203
r 1.5672 0 3 tcp 2040 ------- 0 0.0 3.0 90 186
+ 1.5672 3 0 ack 40 ------- 0 3.0 0.0 90 204
- 1.5672 3 0 ack 40 ------- 0 3.0 0.0 90 204
r 1.57128 0 3 tcp 2040 ------- 0 0.0 3.0 91 187
+ 1.57128 3 0 ack 40 ------- 0 3.0 0.0 91 205
- 1.57128 3 0 ack 40 ------- 0 3.0 0.0 91 205
r 1.57536 0 3 tcp 2040 ------- 0 0.0 3.0 92 188
+ 1.57536 3 0 ack 40 ------- 0 3.0 0.0 92 206
- 1.57536 3 0 ack 40 ------- 0 3.0 0.0 92 206
r 1.57944 0 3 tcp 2040 ------- 0 0.0 3.0 93 189
+ 1.57944 3 0 ack 40 ------- 0 3.0 0.0 93 207
- 1.57944 3 0 ack 40 ------- 0 3.0 0.0 93 207
r 1.58352 0 3 tcp 2040 ------- 0 0.0 3.0 94 190
+ 1.58352 3 0 ack 40 ------- 0 3.0 0.0 94 208
- 1.58352 3 0 ack 40 ------- 0 3.0 0.0 94 208
r 1.5876 0 3 tcp 2040 ------- 0 0.0 3.0 95 191
+ 1.5876 3 0 ack 40 ------- 0 3.0 0.0 95 209
- 1.5876 3 0 ack 40 ------- 0 3.0 0.0 95 209
r 1.59168 0 3 tcp 2040 ------- 0 0.0 3.0 96 192
+ 1.59168 3 0 ack 40 ------- 0 3.0 0.0 96 210
- 1.59168 3 0 ack 40 ------- 0 3.0 0.0 96 210
r 1.59576 0 3 tcp 2040 ------- 0 0.0 3.0 97 193
+ 1.59576 3 0 ack 40 ------- 0 3.0 0.0 97 211
- 1.59576 3 0 ack 40 ------- 0 3.0 0.0 97 211
r 1.59984 0 3 tcp 2040 ------- 0 0.0 3.0 98 194
+ 1.59984 3 0 ack 40 ------- 0 3.0 0.0 98 212
- 1.59984 3 0 ack 40 ------- 0 3.0 0.0 98 212
1.5999999999999999 1.224
r 1.60392 0 3 tcp 2040 ------- 0 0.0 3.0 99 195
+ 1.60392 3 0 ack 40 ------- 0 3.0 0.0 99 213
- 1.60392 3 0 ack 40 ------- 0 3.0 0.0 99 213
r 1.608 0 3 tcp 2040 ------- 0 0.0 3.0 100 196
+ 1.608 3 0 ack 40 ------- 0 3.0 0.0 100 214
- 1.608 3 0 ack 40 ------- 0 3.0 0.0 100 214
r 1.61208 0 3 tcp 2040 ------- 0 0.0 3.0 101 197
+ 1.61208 3 0 ack 40 ------- 0 3.0 0.0 101 215
- 1.61208 3 0 ack 40 ------- 0 3.0 0.0 101 215
r 1.64888 3 0 ack 40 ------- 0 3.0 0.0 85 198
+ 1.64888 0 3 tcp 2040 ------- 0 0.0 3.0 102 216
- 1.64888 0 3 tcp 2040 ------- 0 0.0 3.0 102 216
r 1.64888 2 1 ack 40 ------- 1 2.0 1.0 5 199
+ 1.64888 1 2 tcp 2040 ------- 1 1.0 2.0 6 217
- 1.64888 1 2 tcp 2040 ------- 1 1.0 2.0 6 217
r 1.65296 3 0 ack 40 ------- 0 3.0 0.0 86 200
+ 1.65296 0 3 tcp 2040 ------- 0 0.0 3.0 103 218
- 1.65296 0 3 tcp 2040 ------- 0 0.0 3.0 103 218
r 1.65704 3 0 ack 40 ------- 0 3.0 0.0 87 201
+ 1.65704 0 3 tcp 2040 ------- 0 0.0 3.0 104 219
- 1.65704 0 3 tcp 2040 ------- 0 0.0 3.0 104 219
r 1.66112 3 0 ack 40 ------- 0 3.0 0.0 88 202
+ 1.66112 0 3 tcp 2040 ------- 0 0.0 3.0 105 220
- 1.66112 0 3 tcp 2040 ------- 0 0.0 3.0 105 220
r 1.6652 3 0 ack 40 ------- 0 3.0 0.0 89 203