V -t * -v 1.0a5 -a 0
A -t * -n 1 -p 0 -o 0x7fffffff -c 30 -a 1
A -t * -h 1 -m 1073741823 -s 0
c -t * -i 0 -n green
c -t * -i 1 -n yellow
n -t * -a 0 -s 0 -S UP -v circle -c black -i black
n -t * -a 1 -s 1 -S UP -v circle -c black -i black
n -t * -a 2 -s 2 -S UP -v circle -c black -i black
n -t * -a 3 -s 3 -S UP -v circle -c black -i black
l -t * -s 0 -d 1 -S UP -r 4000000 -D 0.10200000000000001 -c black -o right
l -t * -s 1 -d 2 -S UP -r 4000000 -D 0.10200000000000001 -c black -o down
l -t * -s 2 -d 3 -S UP -r 4000000 -D 0.10200000000000001 -c black -o left
l -t * -s 3 -d 0 -S UP -r 4000000 -D 0.10200000000000001 -c black -o up
n -t 0 -s 0 -S DLABEL -l "GBN_sender_3114702" -L ""
n -t 0 -s 3 -S DLABEL -l "GBN_receiver_3114702" -L ""
n -t 0 -s 1 -S DLABEL -l "SW_sender_3114702" -L ""
n -t 0 -s 2 -S DLABEL -l "SW_receiver_3114702" -L ""
+ -t 0.4 -s 0 -d 3 -p tcp -e 2000 -c 0 -i 0 -a 0 -x {0.0 3.0 0 ------- null}
- -t 0.4 -s 0 -d 3 -p tcp -e 2000 -c 0 -i 0 -a 0 -x {0.0 3.0 0 ------- null}
h -t 0.4 -s 0 -d 3 -p tcp -e 2000 -c 0 -i 0 -a 0 -x {0.0 3.0 -1 ------- null}
+ -t 0.4 -s 0 -d 3 -p tcp -e 2040 -c 0 -i 1 -a 0 -x {0.0 3.0 1 ------- null}
+ -t 0.4 -s 0 -d 3 -p tcp -e 2040 -c 0 -i 2 -a 0 -x {0.0 3.0 2 ------- null}
+ -t 0.4 -s 0 -d 3 -p tcp -e 2040 -c 0 -i 3 -a 0 -x {0.0 3.0 3 ------- null}
+ -t 0.4 -s 0 -d 3 -p tcp -e 2040 -c 0 -i 4 -a 0 -x {0.0 3.0 4 ------- null}
+ -t 0.4 -s 0 -d 3 -p tcp -e 2040 -c 0 -i 5 -a 0 -x {0.0 3.0 5 ------- null}
+ -t 0.4 -s 0 -d 3 -p tcp -e 2040 -c 0 -i 6 -a 0 -x {0.0 3.0 6 ------- null}
+ -t 0.4 -s 0 -d 3 -p tcp -e 2040 -c 0 -i 7 -a 0 -x {0.0 3.0 7 ------- null}
+ -t 0.4 -s 0 -d 3 -p tcp -e 2040 -c 0 -i 8 -a 0 -x {0.0 3.0 8 ------- null}
+ -t 0.4 -s 0 -d 3 -p tcp -e 2040 -c 0 -i 9 -a 0 -x {0.0 3.0 9 ------- null}
+ -t 0.4 -s 0 -d 3 -p tcp -e 2040 -c 0 -i 10 -a 0 -x {0.0 3.0 10 ------- null}
+ -t 0.4 -s 0 -d 3 -p tcp -e 2040 -c 0 -i 11 -a 0 -x {0.0 3.0 11 ------- null}
+ -t 0.4 -s 0 -d 3 -p tcp -e 2040 -c 0 -i 12 -a 0 -x {0.0 3.0 12 ------- null}
+ -t 0.4 -s 0 -d 3 -p tcp -e 2040 -c 0 -i 13 -a 0 -x {0.0 3.0 13 ------- null}
+ -t 0.4 -s 0 -d 3 -p tcp -e 2040 -c 0 -i 14 -a 0 -x {0.0 3.0 14 ------- null}
+ -t 0.4 -s 0 -d 3 -p tcp -e 2040 -c 0 -i 15 -a 0 -x {0.0 3.0 15 ------- null}
+ -t 0.4 -s 0 -d 3 -p tcp -e 2040 -c 0 -i 16 -a 0 -x {0.0 3.0 16 ------- null}
+ -t 0.4 -s 1 -d 2 -p tcp -e 2000 -c 1 -i 17 -a 1 -x {1.0 2.0 0 ------- null}
- -t 0.4 -s 1 -d 2 -p tcp -e 2000 -c 1 -i 17 -a 1 -x {1.0 2.0 0 ------- null}
h -t 0.4 -s 1 -d 2 -p tcp -e 2000 -c 1 -i 17 -a 1 -x {1.0 2.0 -1 ------- null}
- -t 0.404 -s 0 -d 3 -p tcp -e 2040 -c 0 -i 1 -a 0 -x {0.0 3.0 1 ------- null}
h -t 0.404 -s 0 -d 3 -p tcp -e 2040 -c 0 -i 1 -a 0 -x {0.0 3.0 -1 ------- null}
- -t 0.40808 -s 0 -d 3 -p tcp -e 2040 -c 0 -i 2 -a 0 -x {0.0 3.0 2 ------- null}
h -t 0.40808 -s 0 -d 3 -p tcp -e 2040 -c 0 -i 2 -a 0 -x {0.0 3.0 -1 ------- null}
- -t 0.41216 -s 0 -d 3 -p tcp -e 2040 -c 0 -i 3 -a 0 -x {0.0 3.0 3 ------- null}
h -t 0.41216 -s 0 -d 3 -p tcp -e 2040 -c 0 -i 3 -a 0 -x {0.0 3.0 -1 ------- null}
- -t 0.41624 -s 0 -d 3 -p tcp -e 2040 -c 0 -i 4 -a 0 -x {0.0 3.0 4 ------- null}
h -t 0.41624 -s 0 -d 3 -p tcp -e 2040 -c 0 -i 4 -a 0 -x {0.0 3.0 -1 ------- null}
- -t 0.42032 -s 0 -d 3 -p tcp -e 2040 -c 0 -i 5 -a 0 -x {0.0 3.0 5 ------- null}
h -t 0.42032 -s 0 -d 3 -p tcp -e 2040 -c 0 -i 5 -a 0 -x {0.0 3.0 -1 ------- null}
- -t 0.4244 -s 0 -d 3 -p tcp -e 2040 -c 0 -i 6 -a 0 -x {0.0 3.0 6 ------- null}
h -t 0.4244 -s 0 -d 3 -p tcp -e 2040 -c 0 -i 6 -a 0 -x {0.0 3.0 -1 ------- null}
- -t 0.42848 -s 0 -d 3 -p tcp -e 2040 -c 0 -i 7 -a 0 -x {0.0 3.0 7 ------- null}
h -t 0.42848 -s 0 -d 3 -p tcp -e 2040 -c 0 -i 7 -a 0 -x {0.0 3.0 -1 ------- null}
- -t 0.43256 -s 0 -d 3 -p tcp -e 2040 -c 0 -i 8 -a 0 -x {0.0 3.0 8 ------- null}
h -t 0.43256 -s 0 -d 3 -p tcp -e 2040 -c 0 -i 8 -a 0 -x {0.0 3.0 -1 ------- null}
- -t 0.43664 -s 0 -d 3 -p tcp -e 2040 -c 0 -i 9 -a 0 -x {0.0 3.0 9 ------- null}
h -t 0.43664 -s 0 -d 3 -p tcp -e 2040 -c 0 -i 9 -a 0 -x {0.0 3.0 -1 ------- null}
- -t 0.44072 -s 0 -d 3 -p tcp -e 2040 -c 0 -i 10 -a 0 -x {0.0 3.0 10 ------- null}
h -t 0.44072 -s 0 -d 3 -p tcp -e 2040 -c 0 -i 10 -a 0 -x {0.0 3.0 -1 ------- null}
- -t 0.4448 -s 0 -d 3 -p tcp -e 2040 -c 0 -i 11 -a 0 -x {0.0 3.0 11 ------- null}
h -t 0.4448 -s 0 -d 3 -p tcp -e 2040 -c 0 -i 11 -a 0 -x {0.0 3.0 -1 ------- null}
- -t 0.44888 -s 0 -d 3 -p tcp -e 2040 -c 0 -i 12 -a 0 -x {0.0 3.0 12 ------- null}
h -t 0.44888 -s 0 -d 3 -p tcp -e 2040 -c 0 -i 12 -a 0 -x {0.0 3.0 -1 ------- null}
- -t 0.45296 -s 0 -d 3 -p tcp -e 2040 -c 0 -i 13 -a 0 -x {0.0 3.0 13 ------- null}
h -t 0.45296 -s 0 -d 3 -p tcp -e 2040 -c 0 -i 13 -a 0 -x {0.0 3.0 -1 ------- null}
- -t 0.45704 -s 0 -d 3 -p tcp -e 2040 -c 0 -i 14 -a 0 -x {0.0 3.0 14 ------- null}
h -t 0.45704 -s 0 -d 3 -p tcp -e 2040 -c 0 -i 14 -a 0 -x {0.0 3.0 -1 ------- null}
- -t 0.46112 -s 0 -d 3 -p tcp -e 2040 -c 0 -i 15 -a 0 -x {0.0 3.0 15 ------- null}
h -t 0.46112 -s 0 -d 3 -p tcp -e 2040 -c 0 -i 15 -a 0 -x {0.0 3.0 -1 ------- null}
- -t 0.4652 -s 0 -d 3 -p tcp -e 2040 -c 0 -i 16 -a 0 -x {0.0 3.0 16 ------- null}
h -t 0.4652 -s 0 -d 3 -p tcp -e 2040 -c 0 -i 16 -a 0 -x {0.0 3.0 -1 ------- null}
r -t 0.506 -s 0 -d 3 -p tcp -e 2000 -c 0 -i 0 -a 0 -x {0.0 3.0 0 ------- null}
+ -t 0.506 -s 3 -d 0 -p ack -e 40 -c 0 -i 18 -a 0 -x {3.0 0.0 0 ------- null}
- -t 0.506 -s 3 -d 0 -p ack -e 40 -c 0 -i 18 -a 0 -x {3.0 0.0 0 ------- null}
h -t 0.506 -s 3 -d 0 -p ack -e 40 -c 0 -i 18 -a 0 -x {3.0 0.0 -1 ------- null}
r -t 0.506 -s 1 -d 2 -p tcp -e 2000 -c 1 -i 17 -a 1 -x {1.0 2.0 0 ------- null}
+ -t 0.506 -s 2 -d 1 -p ack -e 40 -c 1 -i 19 -a 1 -x {2.0 1.0 0 ------- null}
- -t 0.506 -s 2 -d 1 -p ack -e 40 -c 1 -i 19 -a 1 -x {2.0 1.0 0 ------- null}
h -t 0.506 -s 2 -d 1 -p ack -e 40 -c 1 -i 19 -a 1 -x {2.0 1.0 -1 ------- null}
r -t 0.51008 -s 0 -d 3 -p tcp -e 2040 -c 0 -i 1 -a 0 -x {0.0 3.0 1 ------- null}
+ -t 0.51008 -s 3 -d 0 -p ack -e 40 -c 0 -i 20 -a 0 -x {3.0 0.0 1 ------- null}
- -t 0.51008 -s 3 -d 0 -p ack -e 40 -c 0 -i 20 -a 0 -x {3.0 0.0 1 ------- null}
h -t 0.51008 -s 3 -d 0 -p ack -e 40 -c 0 -i 20 -a 0 -x {3.0 0.0 -1 ------- null}
r -t 0.51416 -s 0 -d 3 -p tcp -e 2040 -c 0 -i 2 -a 0 -x {0.0 3.0 2 ------- null}
+ -t 0.51416 -s 3 -d 0 -p ack -e 40 -c 0 -i 21 -a 0 -x {3.0 0.0 2 ------- null}
- -t 0.51416 -s 3 -d 0 -p ack -e 40 -c 0 -i 21 -a 0 -x {3.0 0.0 2 ------- null}
h -t 0.51416 -s 3 -d 0 -p ack -e 40 -c 0 -i 21 -a 0 -x {3.0 0.0 -1 ------- null}
r -t 0.51824 -s 0 -d 3 -p tcp -e 2040 -c 0 -i 3 -a 0 -x {0.0 3.0 3 ------- null}
+ -t 0.51824 -s 3 -d 0 -p ack -e 40 -c 0 -i 22 -a 0 -x {3.0 0.0 3 ------- null}
- -t 0.51824 -s 3 -d 0 -p ack -e 40 -c 0 -i 22 -a 0 -x {3.0 0.0 3 ------- null}
h -t 0.51824 -s 3 -d 0 -p ack -e 40 -c 0 -i 22 -a 0 -x {3.0 0.0 -1 ------- null}
r -t 0.52232 -s 0 -d 3 -p tcp -e 2040 -c 0 -i 4 -a 0 -x {0.0 3.0 4 ------- null}
+ -t 0.52232 -s 3 -d 0 -p ack -e 40 -c 0 -i 23 -a 0 -x {3.0 0.0 4 ------- null}
- -t 0.52232 -s 3 -d 0 -p ack -e 40 -c 0 -i 23 -a 0 -x {3.0 0.0 4 ------- null}
h -t 0.52232 -s 3 -d 0 -p ack -e 40 -c 0 -i 23 -a 0 -x {3.0 0.0 -1 ------- null}
r -t 0.5264 -s 0 -d 3 -p tcp -e 2040 -c 0 -i 5 -a 0 -x {0.0 3.0 5 ------- null}
+ -t 0.5264 -s 3 -d 0 -p ack -e 40 -c 0 -i 24 -a 0 -x {3.0 0.0 5 ------- null}
- -t 0.5264 -s 3 -d 0 -p ack -e 40 -c 0 -i 24 -a 0 -x {3.0 0.0 5 ------- null}
h -t 0.5264 -s 3 -d 0 -p ack -e 40 -c 0 -i 24 -a 0 -x {3.0 0.0 -1 ------- null}
r -t 0.53048 -s 0 -d 3 -p tcp -e 2040 -c 0 -i 6 -a 0 -x {0.0 3.0 6 ------- null}
+ -t 0.53048 -s 3 -d 0 -p ack -e 40 -c 0 -i 25 -a 0 -x {3.0 0.0 6 ------- null}
- -t 0.53048 -s 3 -d 0 -p ack -e 40 -c 0 -i 25 -a 0 -x {3.0 0.0 6 ------- null}
h -t 0.53048 -s 3 -d 0 -p ack -e 40 -c 0 -i 25 -a 0 -x {3.0 0.0 -1 ------- null}
r -t 0.53456 -s 0 -d 3 -p tcp -e 2040 -c 0 -i 7 -a 0 -x {0.0 3.0 7 ------- null}
+ -t 0.53456 -s 3 -d 0 -p ack -e 40 -c 0 -i 26 -a 0 -x {3.0 0.0 7 ------- null}
- -t 0.53456 -s 3 -d 0 -p ack -e 40 -c 0 -i 26 -a 0 -x {3.0 0.0 7 ------- null}
h -t 0.53456 -s 3 -d 0 -p ack -e 40 -c 0 -i 26 -a 0 -x {3.0 0.0 -1 ------- null}
r -t 0.53864 -s 0 -d 3 -p tcp -e 2040 -c 0 -i 8 -a 0 -x {0.0 3.0 8 ------- null}
+ -t 0.53864 -s 3 -d 0 -p ack -e 40 -c 0 -i 27 -a 0 -x {3.0 0.0 8 ------- null}
- -t 0.53864 -s 3 -d 0 -p ack -e 40 -c 0 -i 27 -a 0 -x {3.0 0.0 8 ------- null}
h -t 0.53864 -s 3 -d 0 -p ack -e 40 -c 0 -i 27 -a 0 -x {3.0 0.0 -1 ------- null}
r -t 0.54272 -s 0 -d 3 -p tcp -e 2040 -c 0 -i 9 -a 0 -x {0.0 3.0 9 ------- null}
+ -t 0.54272 -s 3 -d 0 -p ack -e 40 -c 0 -i 28 -a 0 -x {3.0 0.0 9 ------- null}
- -t 0.54272 -s 3 -d 0 -p ack -e 40 -c 0 -i 28 -a 0 -x {3.0 0.0 9 ------- null}
h -t 0.54272 -s 3 -d 0 -p ack -e 40 -c 0 -i 28 -a 0 -x {3.0 0.0 -1 ------- null}
r -t 0.5468 -s 0 -d 3 -p tcp -e 2040 -c 0 -i 10 -a 0 -x {0.0 3.0 10 ------- null}
+ -t 0.5468 -s 3 -d 0 -p ack -e 40 -c 0 -i 29 -a 0 -x {3.0 0.0 10 ------- null}
- -t 0.5468 -s 3 -d 0 -p ack -e 40 -c 0 -i 29 -a 0 -x {3.0 0.0 10 ------- null}
h -t 0.5468 -s 3 -d 0 -p ack -e 40 -c 0 -i 29 -a 0 -x {3.0 0.0 -1 ------- null}
r -t 0.55088 -s 0 -d 3 -p tcp -e 2040 -c 0 -i 11 -a 0 -x {0.0 3.0 11 ------- null}
+ -t 0.55088 -s 3 -d 0 -p ack -e 40 -c 0 -i 30 -a 0 -x {3.0 0.0 11 ------- null}
- -t 0.55088 -s 3 -d 0 -p ack -e 40 -c 0 -i 30 -a 0 -x {3.0 0.0 11 ------- null}
h -t 0.55088 -s 3 -d 0 -p ack -e 40 -c 0 -i 30 -a 0 -x {3.0 0.0 -1 ------- null}
r -t 0.55496 -s 0 -d 3 -p tcp -e 2040 -c 0 -i 12 -a 0 -x {0.0 3.0 12 ------- null}
+ -t 0.55496 -s 3 -d 0 -p ack -e 40 -c 0 -i 31 -a 0 -x {3.0 0.0 12 ------- null}
- -t 0.55496 -s 3 -d 0 -p ack -e 40 -c 0 -i 31 -a 0 -x {3.0 0.0 12 ------- null}
h -t 0.55496 -s 3 -d 0 -p ack -e 40 -c 0 -i 31 -a 0 -x {3.0 0.0 -1 ------- null}
r -t 0.55904 -s 0 -d 3 -p tcp -e 2040 -c 0 -i 13 -a 0 -x {0.0 3.0 13 ------- null}
+ -t 0.55904 -s 3 -d 0 -p ack -e 40 -c 0 -i 32 -a 0 -x {3.0 0.0 13 ------- null}
- -t 0.55904 -s 3 -d 0 -p ack -e 40 -c 0 -i 32 -a 0 -x {3.0 0.0 13 ------- null}
h -t 0.55904 -s 3 -d 0 -p ack -e 40 -c 0 -i 32 -a 0 -x {3.0 0.0 -1 ------- null}
r -t 0.56312 -s 0 -d 3 -p tcp -e 2040 -c 0 -i 14 -a 0 -x {0.0 3.0 14 ------- null}
+ -t 0.56312 -s 3 -d 0 -p ack -e 40 -c 0 -i 33 -a 0 -x {3.0 0.0 14 ------- null}
- -t 0.56312 -s 3 -d 0 -p ack -e 40 -c 0 -i 33 -a 0 -x {3.0 0.0 14 ------- null}
h -t 0.56312 -s 3 -d 0 -p ack -e 40 -c 0 -i 33 -a 0 -x {3.0 0.0 -1 ------- null}
r -t 0.5672 -s 0 -d 3 -p tcp -e 2040 -c 0 -i 15 -a 0 -x {0.0 3.0 15 ------- null}
+ -t 0.5672 -s 3 -d 0 -p ack -e 40 -c 0 -i 34 -a 0 -x {3.0 0.0 15 ------- null}
- -t 0.5672 -s 3 -d 0 -p ack -e 40 -c 0 -i 34 -a 0 -x {3.0 0.0 15 ------- null}
h -t 0.5672 -s 3 -d 0 -p ack -e 40 -c 0 -i 34 -a 0 -x {3.0 0.0 -1 ------- null}
r -t 0.57128 -s 0 -d 3 -p tcp -e 2040 -c 0 -i 16 -a 0 -x {0.0 3.0 16 ------- null}
+ -t 0.57128 -s 3 -d 0 -p ack -e 40 -c 0 -i 35 -a 0 -x {3.0 0.0 16 ------- null}
- -t 0.57128 -s 3 -d 0 -p ack -e 40 -c 0 -i 35 -a 0 -x {3.0 0.0 16 ------- null}
h -t 0.57128 -s 3 -d 0 -p ack -e 40 -c 0 -i 35 -a 0 -x {3.0 0.0 -1 ------- null}
r -t 0.60808 -s 3 -d 0 -p ack -e 40 -c 0 -i 18 -a 0 -x {3.0 0.0 0 ------- null}
+ -t 0.60808 -s 0 -d 3 -p tcp -e 2040 -c 0 -i 36 -a 0 -x {0.0 3.0 17 ------- null}
- -t 0.60808 -s 0 -d 3 -p tcp -e 2040 -c 0 -i 36 -a 0 -x {0.0 3.0 17 ------- null}
h -t 0.60808 -s 0 -d 3 -p tcp -e 2040 -c 0 -i 36 -a 0 -x {0.0 3.0 -1 ------- null}
r -t 0.60808 -s 2 -d 1 -p ack -e 40 -c 1 -i 19 -a 1 -x {2.0 1.0 0 ------- null}
+ -t 0.60808 -s 1 -d 2 -p tcp -e 2040 -c 1 -i 37 -a 1 -x {1.0 2.0 1 ------- null}
- -t 0.60808 -s 1 -d 2 -p tcp -e 2040 -c 1 -i 37 -a 1 -x {1.0 2.0 1 ------- null}
h -t 0.60808 -s 1 -d 2 -p tcp -e 2040 -c 1 -i 37 -a 1 -x {1.0 2.0 -1 ------- null}
r -t 0.61216 -s 3 -d 0 -p ack -e 40 -c 0 -i 20 -a 0 -x {3.0 0.0 1 ------- null}
+ -t 0.61216 -s 0 -d 3 -p tcp -e 2040 -c 0 -i 38 -a 0 -x {0.0 3.0 18 ------- null}
- -t 0.61216 -s 0 -d 3 -p tcp -e 2040 -c 0 -i 38 -a 0 -x {0.0 3.0 18 ------- null}
h -t 0.61216 -s 0 -d 3 -p tcp -e 2040 -c 0 -i 38 -a 0 -x {0.0 3.0 -1 ------- null}
r -t 0.61624 -s 3 -d 0 -p ack -e 40 -c 0 -i 21 -a 0 -x {3.0 0.0 2 ------- null}
+ -t 0.61624 -s 0 -d 3 -p tcp -e 2040 -c 0 -i 39 -a 0 -x {0.0 3.0 19 ------- null}
- -t 0.61624 -s 0 -d 3 -p tcp -e 2040 -c 0 -i 39 -a 0 -x {0.0 3.0 19 ------- null}
h -t 0.61624 -s 0 -d 3 -p tcp -e 2040 -c 0 -i 39 -a 0 -x {0.0 3.0 -1 ------- null}
r -t 0.62032 -s 3 -d 0 -p ack -e 40 -c 0 -i 22 -a 0 -x {3.0 0.0 3 ------- null}
+ -t 0.62032 -s 0 -d 3 -p tcp -e 2040 -c 0 -i 40 -a 0 -x {0.0 3.0 20 ------- null}
- -t 0.62032 -s 0 -d 3 -p tcp -e 2040 -c 0 -i 40 -a 0 -x {0.0 3.0 20 ------- null}
h -t 0.62032 -s 0 -d 3 -p tcp -e 2040 -c 0 -i 40 -a 0 -x {0.0 3.0 -1 ------- null}
r -t 0.6244 -s 3 -d 0 -p ack -e 40 -c 0 -i 23 -a 0 -x {3.0 0.0 4 ------- null}
+ -t 0.6244 -s 0 -d 3 -p tcp -e 2040 -c 0 -i 41 -a 0 -x {0.0 3.0 21 ------- null}
- -t 0.6244 -s 0 -d 3 -p tcp -e 2040 -c 0 -i 41 -a 0 -x {0.0 3.0 21 ------- null}
h -t 0.6244 -s 0 -d 3 -p tcp -e 2040 -c 0 -i 41 -a 0 -x {0.0 3.0 -1 ------- null}
r -t 0.62848 -s 3 -d 0 -p ack -e 40 -c 0 -i 24 -a 0 -x {3.0 0.0 5 ------- null}
+ -t 0.62848 -s 0 -d 3 -p tcp -e 2040 -c 0 -i 42 -a 0 -x {0.0 3.0 22 ------- null}
- -t 0.62848 -s 0 -d 3 -p tcp -e 2040 -c 0 -i 42 -a 0 -x {0.0 3.0 22 ------- null}
h -t 0.62848 -s 0 -d 3 -p tcp -e 2040 -c 0 -i 42 -a 0 -x {0.0 3.0 -1 ------- null}
r -t 0.63256 -s 3 -d 0 -p ack -e 40 -c 0 -i 25 -a 0 -x {3.0 0.0 6 ------- null}
+ -t 0.63256 -s 0 -d 3 -p tcp -e 2040 -c 0 -i 43 -a 0 -x {0.0 3.0 23 ------- null}
- -t 0.63256 -s 0 -d 3 -p tcp -e 2040 -c 0 -i 43 -a 0 -x {0.0 3.0 23 ------- null}
h -t 0.63256 -s 0 -d 3 -p tcp -e 2040 -c 0 -i 43 -a 0 -x {0.0 3.0 -1 ------- null}
r -t 0.63664 -s 3 -d 0 -p ack -e 40 -c 0 -i 26 -a 0 -x {3.0 0.0 7 ------- null}
+ -t 0.63664 -s 0 -d 3 -p tcp -e 2040 -c 0 -i 44 -a 0 -x {0.0 3.0 24 ------- null}
- -t 0.63664 -s 0 -d 3 -p tcp -e 2040 -c 0 -i 44 -a 0 -x {0.0 3.0 24 ------- null}
h -t 0.63664 -s 0 -d 3 -p tcp -e 2040 -c 0 -i 44 -a 0 -x {0.0 3.0 -1 ------- null}
r -t 0.64072 -s 3 -d 0 -p ack -e 40 -c 0 -i 27 -a 0 -x {3.0 0.0 8 ------- null}
+ -t 0.64072 -s 0 -d 3 -p tcp -e 2040 -c 0 -i 45 -a 0 -x {0.0 3.0 25 ------- null}
- -t 0.64072 -s 0 -d 3 -p tcp -e 2040 -c 0 -i 45 -a 0 -x {0.0 3.0 25 ------- null}
h -t 0.64072 -s 0 -d 3 -p tcp -e 2040 -c 0 -i 45 -a 0 -x {0.0 3.0 -1 ------- null}
r -t 0.6448 -s 3 -d 0 -p ack -e 40 -c 0 -i 28 -a 0 -x {3.0 0.0 9 ------- null}
+ -t 0.6448 -s 0 -d 3 -p tcp -e 2040 -c 0 -i 46 -a 0 -x {0.0 3.0 26 ------- null}
- -t 0.6448 -s 0 -d 3 -p tcp -e 2040 -c 0 -i 46 -a 0 -x {0.0 3.0 26 ------- null}
h -t 0.6448 -s 0 -d 3 -p tcp -e 2040 -c 0 -i 46 -a 0 -x {0.0 3.0 -1 ------- null}
r -t 0.64888 -s 3 -d 0 -p ack -e 40 -c 0 -i 29 -a 0 -x {3.0 0.0 10 ------- null}
+ -t 0.64888 -s 0 -d 3 -p tcp -e 2040 -c 0 -i 47 -a 0 -x {0.0 3.0 27 ------- null}
- -t 0.64888 -s 0 -d 3 -p tcp -e 2040 -c 0 -i 47 -a 0 -x {0.0 3.0 27 ------- null}
h -t 0.64888 -s 0 -d 3 -p tcp -e 2040 -c 0 -i 47 -a 0 -x {0.0 3.0 -1 ------- null}
r -t 0.65296 -s 3 -d 0 -p ack -e 40 -c 0 -i 30 -a 0 -x {3.0 0.0 11 ------- null}
+ -t 0.65296 -s 0 -d 3 -p tcp -e 2040 -c 0 -i 48 -a 0 -x {0.0 3.0 28 ------- null}
- -t 0.65296 -s 0 -d 3 -p tcp -e 2040 -c 0 -i 48 -a 0 -x {0.0 3.0 28 ------- null}
h -t 0.65296 -s 0 -d 3 -p tcp -e 2040 -c 0 -i 48 -a 0 -x {0.0 3.0 -1 ------- null}
r -t 0.65704 -s 3 -d 0 -p ack -e 40 -c 0 -i 31 -a 0 -x {3.0 0.0 12 ------- null}
+ -t 0.65704 -s 0 -d 3 -p tcp -e 2040 -c 0 -i 49 -a 0 -x {0.0 3.0 29 ------- null}
- -t 0.65704 -s 0 -d 3 -p tcp -e 2040 -c 0 -i 49 -a 0 -x {0.0 3.0 29 ------- null}
h -t 0.65704 -s 0 -d 3 -p tcp -e 2040 -c 0 -i 49 -a 0 -x {0.0 3.0 -1 ------- null}
r -t 0.66112 -s 3 -d 0 -p ack -e 40 -c 0 -i 32 -a 0 -x {3.0 0.0 13 ------- null}
+ -t 0.66112 -s 0 -d 3 -p tcp -e 2040 -c 0 -i 50 -a 0 -x {0.0 3.0 30 ------- null}
- -t 0.66112 -s 0 -d 3 -p tcp -e 2040 -c 0 -i 50 -a 0 -x {0.0 3.0 30 ------- null}
h -t 0.66112 -s 0 -d 3 -p tcp -e 2040 -c 0 -i 50 -a 0 -x {0.0 3.0 -1 ------- null}
r -t 0.6652 -s 3 -d 0 -p ack -e 40 -c 0 -i 33 -a 0 -x {3.0 0.0 14 ------- null}
+ -t 0.6652 -s 0 -d 3 -p tcp -e 2040 -c 0 -i 51 -a 0 -x {0.0 3.0 31 ------- null}
- -t 0.6652 -s 0 -d 3 -p tcp -e 2040 -c 0 -i 51 -a 0 -x {0.0 3.0 31 ------- null}
h -t 0.6652 -s 0 -d 3 -p tcp -e 2040 -c 0 -i 51 -a 0 -x {0.0 3.0 -1 ------- null}
r -t 0.66928 -s 3 -d 0 -p ack -e 40 -c 0 -i 34 -a 0 -x {3.0 0.0 15 ------- null}
+ -t 0.66928 -s 0 -d 3 -p tcp -e 2040 -c 0 -i 52 -a 0 -x {0.0 3.0 32 ------- null}
- -t 0.66928 -s 0 -d 3 -p tcp -e 2040 -c 0 -i 52 -a 0 -x {0.0 3.0 32 ------- null}
h -t 0.66928 -s 0 -d 3 -p tcp -e 2040 -c 0 -i 52 -a 0 -x {0.0 3.0 -1 ------- null}
r -t 0.67336 -s 3 -d 0 -p ack -e 40 -c 0 -i 35 -a 0 -x {3.0 0.0 16 ------- null}
+ -t 0.67336 -s 0 -d 3 -p tcp -e 2040 -c 0 -i 53 -a 0 -x {0.0 3.0 33 ------- null}
- -t 0.67336 -s 0 -d 3 -p tcp -e 2040 -c 0 -i 53 -a 0 -x {0.0 3.0 33 ------- null}
h -t 0.67336 -s 0 -d 3 -p tcp -e 2040 -c 0 -i 53 -a 0 -x {0.0 3.0 -1 ------- null}
r -t 0.71416 -s 0 -d 3 -p tcp -e 2040 -c 0 -i 36 -a 0 -x {0.0 3.0 17 ------- null}
+ -t 0.71416 -s 3 -d 0 -p ack -e 40 -c 0 -i 54 -a 0 -x {3.0 0.0 17 ------- null}
- -t 0.71416 -s 3 -d 0 -p ack -e 40 -c 0 -i 54 -a 0 -x {3.0 0.0 17 ------- null}
h -t 0.71416 -s 3 -d 0 -p ack -e 40 -c 0 -i 54 -a 0 -x {3.0 0.0 -1 ------- null}
r -t 0.71416 -s 1 -d 2 -p tcp -e 2040 -c 1 -i 37 -a 1 -x {1.0 2.0 1 ------- null}
+ -t 0.71416 -s 2 -d 1 -p ack -e 40 -c 1 -i 55 -a 1 -x {2.0 1.0 1 ------- null}
- -t 0.71416 -s 2 -d 1 -p ack -e 40 -c 1 -i 55 -a 1 -x {2.0 1.0 1 ------- null}
h -t 0.71416 -s 2 -d 1 -p ack -e 40 -c 1 -i 55 -a 1 -x {2.0 1.0 -1 ------- null}
r -t 0.71824 -s 0 -d 3 -p tcp -e 2040 -c 0 -i 38 -a 0 -x {0.0 3.0 18 ------- null}
+ -t 0.71824 -s 3 -d 0 -p ack -e 40 -c 0 -i 56 -a 0 -x {3.0 0.0 18 ------- null}
- -t 0.71824 -s 3 -d 0 -p ack -e 40 -c 0 -i 56 -a 0 -x {3.0 0.0 18 ------- null}
h -t 0.71824 -s 3 -d 0 -p ack -e 40 -c 0 -i 56 -a 0 -x {3.0 0.0 -1 ------- null}
r -t 0.72232 -s 0 -d 3 -p tcp -e 2040 -c 0 -i 39 -a 0 -x {0.0 3.0 19 ------- null}
+ -t 0.72232 -s 3 -d 0 -p ack -e 40 -c 0 -i 57 -a 0 -x {3.0 0.0 19 ------- null}
- -t 0.72232 -s 3 -d 0 -p ack -e 40 -c 0 -i 57 -a 0 -x {3.0 0.0 19 ------- null}
h -t 0.72232 -s 3 -d 0 -p ack -e 40 -c 0 -i 57 -a 0 -x {3.0 0.0 -1 ------- null}
r -t 0.7264 -s 0 -d 3 -p tcp -e 2040 -c 0 -i 40 -a 0 -x {0.0 3.0 20 ------- null}
+ -t 0.7264 -s 3 -d 0 -p ack -e 40 -c 0 -i 58 -a 0 -x {3.0 0.0 20 ------- null}
- -t 0.7264 -s 3 -d 0 -p ack -e 40 -c 0 -i 58 -a 0 -x {3.0 0.0 20 ------- null}
h -t 0.7264 -s 3 -d 0 -p ack -e 40 -c 0 -i 58 -a 0 -x {3.0 0.0 -1 ------- null}
r -t 0.73048 -s 0 -d 3 -p tcp -e 2040 -c 0 -i 41 -a 0 -x {0.0 3.0 21 ------- null}
+ -t 0.73048 -s 3 -d 0 -p ack -e 40 -c 0 -i 59 -a 0 -x {3.0 0.0 21 ------- null}
- -t 0.73048 -s 3 -d 0 -p ack -e 40 -c 0 -i 59 -a 0 -x {3.0 0.0 21 ------- null}
h -t 0.73048 -s 3 -d 0 -p ack -e 40 -c 0 -i 59 -a 0 -x {3.0 0.0 -1 ------- null}
r -t 0.73456 -s 0 -d 3 -p tcp -e 2040 -c 0 -i 42 -a 0 -x {0.0 3.0 22 ------- null}
+ -t 0.73456 -s 3 -d 0 -p ack -e 40 -c 0 -i 60 -a 0 -x {3.0 0.0 22 ------- null}
- -t 0.73456 -s 3 -d 0 -p ack -e 40 -c 0 -i 60 -a 0 -x {3.0 0.0 22 ------- null}
h -t 0.73456 -s 3 -d 0 -p ack -e 40 -c 0 -i 60 -a 0 -x {3.0 0.0 -1 ------- null}
r -t 0.73864 -s 0 -d 3 -p tcp -e 2040 -c 0 -i 43 -a 0 -x {0.0 3.0 23 ------- null}
+ -t 0.73864 -s 3 -d 0 -p ack -e 40 -c 0 -i 61 -a 0 -x {3.0 0.0 23 ------- null}
- -t 0.73864 -s 3 -d 0 -p ack -e 40 -c 0 -i 61 -a 0 -x {3.0 0.0 23 ------- null}
h -t 0.73864 -s 3 -d 0 -p ack -e 40 -c 0 -i 61 -a 0 -x {3.0 0.0 -1 ------- null}
r -t 0.74272 -s 0 -d 3 -p tcp -e 2040 -c 0 -i 44 -a 0 -x {0.0 3.0 24 ------- null}
+ -t 0.74272 -s 3 -d 0 -p ack -e 40 -c 0 -i 62 -a 0 -x {3.0 0.0 24 ------- null}
- -t 0.74272 -s 3 -d 0 -p ack -e 40 -c 0 -i 62 -a 0 -x {3.0 0.0 24 ------- null}
h -t 0.74272 -s 3 -d 0 -p ack -e 40 -c 0 -i 62 -a 0 -x {3.0 0.0 -1 ------- null}
r -t 0.7468 -s 0 -d 3 -p tcp -e 2040 -c 0 -i 45 -a 0 -x {0.0 3.0 25 ------- null}
+ -t 0.7468 -s 3 -d 0 -p ack -e 40 -c 0 -i 63 -a 0 -x {3.0 0.0 25 ------- null}
- -t 0.7468 -s 3 -d 0 -p ack -e 40 -c 0 -i 63 -a 0 -x {3.0 0.0 25 ------- null}
h -t 0.7468 -s 3 -d 0 -p ack -e 40 -c 0 -i 63 -a 0 -x {3.0 0.0 -1 ------- null}
r -t 0.75088 -s 0 -d 3 -p tcp -e 2040 -c 0 -i 46 -a 0 -x {0.0 3.0 26 ------- null}
+ -t 0.75088 -s 3 -d 0 -p ack -e 40 -c 0 -i 64 -a 0 -x {3.0 0.0 26 ------- null}
- -t 0.75088 -s 3 -d 0 -p ack -e 40 -c 0 -i 64 -a 0 -x {3.0 0.0 26 ------- null}
h -t 0.75088 -s 3 -d 0 -p ack -e 40 -c 0 -i 64 -a 0 -x {3.0 0.0 -1 ------- null}
r -t 0.75496 -s 0 -d 3 -p tcp -e 2040 -c 0 -i 47 -a 0 -x {0.0 3.0 27 ------- null}
+ -t 0.75496 -s 3 -d 0 -p ack -e 40 -c 0 -i 65 -a 0 -x {3.0 0.0 27 ------- null}
- -t 0.75496 -s 3 -d 0 -p ack -e 40 -c 0 -i 65 -a 0 -x {3.0 0.0 27 ------- null}
h -t 0.75496 -s 3 -d 0 -p ack -e 40 -c 0 -i 65 -a 0 -x {3.0 0.0 -1 ------- null}
r -t 0.75904 -s 0 -d 3 -p tcp -e 2040 -c 0 -i 48 -a 0 -x {0.0 3.0 28 ------- null}
+ -t 0.75904 -s 3 -d 0 -p ack -e 40 -c 0 -i 66 -a 0 -x {3.0 0.0 28 ------- null}
- -t 0.75904 -s 3 -d 0 -p ack -e 40 -c 0 -i 66 -a 0 -x {3.0 0.0 28 ------- null}
h -t 0.75904 -s 3 -d 0 -p ack -e 40 -c 0 -i 66 -a 0 -x {3.0 0.0 -1 ------- null}
r -t 0.76312 -s 0 -d 3 -p tcp -e 2040 -c 0 -i 49 -a 0 -x {0.0 3.0 29 ------- null}
+ -t 0.76312 -s 3 -d 0 -p ack -e 40 -c 0 -i 67 -a 0 -x {3.0 0.0 29 ------- null}
- -t 0.76312 -s 3 -d 0 -p ack -e 40 -c 0 -i 67 -a 0 -x {3.0 0.0 29 ------- null}
h -t 0.76312 -s 3 -d 0 -p ack -e 40 -c 0 -i 67 -a 0 -x {3.0 0.0 -1 ------- null}
r -t 0.7672 -s 0 -d 3 -p tcp -e 2040 -c 0 -i 50 -a 0 -x {0.0 3.0 30 ------- null}
+ -t 0.7672 -s 3 -d 0 -p ack -e 40 -c 0 -i 68 -a 0 -x {3.0 0.0 30 ------- null}
- -t 0.7672 -s 3 -d 0 -p ack -e 40 -c 0 -i 68 -a 0 -x {3.0 0.0 30 ------- null}
h -t 0.7672 -s 3 -d 0 -p ack -e 40 -c 0 -i 68 -a 0 -x {3.0 0.0 -1 ------- null}
r -t 0.77128 -s 0 -d 3 -p tcp -e 2040 -c 0 -i 51 -a 0 -x {0.0 3.0 31 ------- null}
+ -t 0.77128 -s 3 -d 0 -p ack -e 40 -c 0 -i 69 -a 0 -x {3.0 0.0 31 ------- null}
- -t 0.77128 -s 3 -d 0 -p ack -e 40 -c 0 -i 69 -a 0 -x {3.0 0.0 31 ------- null}
h -t 0.77128 -s 3 -d 0 -p ack -e 40 -c 0 -i 69 -a 0 -x {3.0 0.0 -1 ------- null}
r -t 0.77536 -s 0 -d 3 -p tcp -e 2040 -c 0 -i 52 -a 0 -x {0.0 3.0 32 ------- null}
+ -t 0.77536 -s 3 -d 0 -p ack -e 40 -c 0 -i 70 -a 0 -x {3.0 0.0 32 ------- null}
- -t 0.77536 -s 3 -d 0 -p ack -e 40 -c 0 -i 70 -a 0 -x {3.0 0.0 32 ------- null}
h -t 0.77536 -s 3 -d 0 -p ack -e 40 -c 0 -i 70 -a 0 -x {3.0 0.0 -1 ------- null}
r -t 0.77944 -s 0 -d 3 -p tcp -e 2040 -c 0 -i 53 -a 0 -x {0.0 3.0 33 ------- null}
+ -t 0.77944 -s 3 -d 0 -p ack -e 40 -c 0 -i 71 -a 0 -x {3.0 0.0 33 ------- null}
- -t 0.77944 -s 3 -d 0 -p ack -e 40 -c 0 -i 71 -a 0 -x {3.0 0.0 33 ------- null}
h -t 0.77944 -s 3 -d 0 -p ack -e 40 -c 0 -i 71 -a 0 -x {3.0 0.0 -1 ------- null}
r -t 0.81624 -s 3 -d 0 -p ack -e 40 -c 0 -i 54 -a 0 -x {3.0 0.0 17 ------- null}
+ -t 0.81624 -s 0 -d 3 -p tcp -e 2040 -c 0 -i 72 -a 0 -x {0.0 3.0 34 ------- null}
- -t 0.81624 -s 0 -d 3 -p tcp -e 2040 -c 0 -i 72 -a 0 -x {0.0 3.0 34 ------- null}
h -t 0.81624 -s 0 -d 3 -p tcp -e 2040 -c 0 -i 72 -a 0 -x {0.0 3.0 -1 ------- null}
r -t 0.81624 -s 2 -d 1 -p ack -e 40 -c 1 -i 55 -a 1 -x {2.0 1.0 1 ------- null}
+ -t 0.81624 -s 1 -d 2 -p tcp -e 2040 -c 1 -i 73 -a 1 -x {1.0 2.0 2 ------- null}
- -t 0.81624 -s 1 -d 2 -p tcp -e 2040 -c 1 -i 73 -a 1 -x {1.0 2.0 2 ------- null}
h -t 0.81624 -s 1 -d 2 -p tcp -e 2040 -c 1 -i 73 -a 1 -x {1.0 2.0 -1 ------- null}
r -t 0.82032 -s 3 -d 0 -p ack -e 40 -c 0 -i 56 -a 0 -x {3.0 0.0 18 ------- null}
+ -t 0.82032 -s 0 -d 3 -p tcp -e 2040 -c 0 -i 74 -a 0 -x {0.0 3.0 35 ------- null}
- -t 0.82032 -s 0 -d 3 -p tcp -e 2040 -c 0 -i 74 -a 0 -x {0.0 3.0 35 ------- null}
h -t 0.82032 -s 0 -d 3 -p tcp -e 2040 -c 0 -i 74 -a 0 -x {0.0 3.0 -1 ------- null}
r -t 0.8244 -s 3 -d 0 -p ack -e 40 -c 0 -i 57 -a 0 -x {3.0 0.0 19 ------- null}
+ -t 0.8244 -s 0 -d 3 -p tcp -e 2040 -c 0 -i 75 -a 0 -x {0.0 3.0 36 ------- null}
- -t 0.8244 -s 0 -d 3 -p tcp -e 2040 -c 0 -i 75 -a 0 -x {0.0 3.0 36 ------- null}
h -t 0.8244 -s 0 -d 3 -p tcp -e 2040 -c 0 -i 75 -a 0 -x {0.0 3.0 -1 ------- null}
r -t 0.82848 -s 3 -d 0 -p ack -e 40 -c 0 -i 58 -a 0 -x {3.0 0.0 20 ------- null}
+ -t 0.82848 -s 0 -d 3 -p tcp -e 2040 -c 0 -i 76 -a 0 -x {0.0 3.0 37 ------- null}
- -t 0.82848 -s 0 -d 3 -p tcp -e 2040 -c 0 -i 76 -a 0 -x {0.0 3.0 37 ------- null}
h -t 0.82848 -s 0 -d 3 -p tcp -e 2040 -c 0 -i 76 -a 0 -x {0.0 3.0 -1 ------- null}
r -t 0.83256 -s 3 -d 0 -p ack -e 40 -c 0 -i 59 -a 0 -x {3.0 0.0 21 ------- null}
+ -t 0.83256 -s 0 -d 3 -p tcp -e 2040 -c 0 -i 77 -a 0 -x {0.0 3.0 38 ------- null}
- -t 0.83256 -s 0 -d 3 -p tcp -e 2040 -c 0 -i 77 -a 0 -x {0.0 3.0 38 ------- null}
h -t 0.83256 -s 0 -d 3 -p tcp -e 2040 -c 0 -i 77 -a 0 -x {0.0 3.0 -1 ------- null}
r -t 0.83664 -s 3 -d 0 -p ack -e 40 -c 0 -i 60 -a 0 -x {3.0 0.0 22 ------- null}
+ -t 0.83664 -s 0 -d 3 -p tcp -e 2040 -c 0 -i 78 -a 0 -x {0.0 3.0 39 ------- null}
- -t 0.83664 -s 0 -d 3 -p tcp -e 2040 -c 0 -i 78 -a 0 -x {0.0 3.0 39 ------- null}
h -t 0.83664 -s 0 -d 3 -p tcp -e 2040 -c 0 -i 78 -a 0 -x {0.0 3.0 -1 ------- null}
r -t 0.84072 -s 3 -d 0 -p ack -e 40 -c 0 -i 61 -a 0 -x {3.0 0.0 23 ------- null}
+ -t 0.84072 -s 0 -d 3 -p tcp -e 2040 -c 0 -i 79 -a 0 -x {0.0 3.0 40 ------- null}
- -t 0.84072 -s 0 -d 3 -p tcp -e 2040 -c 0 -i 79 -a 0 -x {0.0 3.0 40 ------- null}
h -t 0.84072 -s 0 -d 3 -p tcp -e 2040 -c 0 -i 79 -a 0 -x {0.0 3.0 -1 ------- null}
r -t 0.8448 -s 3 -d 0 -p ack -e 40 -c 0 -i 62 -a 0 -x {3.0 0.0 24 ------- null}
+ -t 0.8448 -s 0 -d 3 -p tcp -e 2040 -c 0 -i 80 -a 0 -x {0.0 3.0 41 ------- null}
- -t 0.8448 -s 0 -d 3 -p tcp -e 2040 -c 0 -i 80 -a 0 -x {0.0 3.0 41 ------- null}
h -t 0.8448 -s 0 -d 3 -p tcp -e 2040 -c 0 -i 80 -a 0 -x {0.0 3.0 -1 ------- null}
r -t 0.84888 -s 3 -d 0 -p ack -e 40 -c 0 -i 63 -a 0 -x {3.0 0.0 25 ------- null}
+ -t 0.84888 -s 0 -d 3 -p tcp -e 2040 -c 0 -i 81 -a 0 -x {0.0 3.0 42 ------- null}
- -t 0.84888 -s 0 -d 3 -p tcp -e 2040 -c 0 -i 81 -a 0 -x {0.0 3.0 42 ------- null}
h -t 0.84888 -s 0 -d 3 -p tcp -e 2040 -c 0 -i 81 -a 0 -x {0.0 3.0 -1 ------- null}
r -t 0.85296 -s 3 -d 0 -p ack -e 40 -c 0 -i 64 -a 0 -x {3.0 0.0 26 ------- null}
+ -t 0.85296 -s 0 -d 3 -p tcp -e 2040 -c 0 -i 82 -a 0 -x {0.0 3.0 43 ------- null}
- -t 0.85296 -s 0 -d 3 -p tcp -e 2040 -c 0 -i 82 -a 0 -x {0.0 3.0 43 ------- null}
h -t 0.85296 -s 0 -d 3 -p tcp -e 2040 -c 0 -i 82 -a 0 -x {0.0 3.0 -1 ------- null}
r -t 0.85704 -s 3 -d 0 -p ack -e 40 -c 0 -i 65 -a 0 -x {3.0 0.0 27 ------- null}
+ -t 0.85704 -s 0 -d 3 -p tcp -e 2040 -c 0 -i 83 -a 0 -x {0.0 3.0 44 ------- null}
- -t 0.85704 -s 0 -d 3 -p tcp -e 2040 -c 0 -i 83 -a 0 -x {0.0 3.0 44 ------- null}
h -t 0.85704 -s 0 -d 3 -p tcp -e 2040 -c 0 -i 83 -a 0 -x {0.0 3.0 -1 ------- null}
r -t 0.86112 -s 3 -d 0 -p ack -e 40 -c 0 -i 66 -a 0 -x {3.0 0.0 28 ------- null}
+ -t 0.86112 -s 0 -d 3 -p tcp -e 2040 -c 0 -i 84 -a 0 -x {0.0 3.0 45 ------- null}
- -t 0.86112 -s 0 -d 3 -p tcp -e 2040 -c 0 -i 84 -a 0 -x {0.0 3.0 45 ------- null}
h -t 0.86112 -s 0 -d 3 -p tcp -e 2040 -c 0 -i 84 -a 0 -x {0.0 3.0 -1 ------- null}
r -t 0.8652 -s 3 -d 0 -p ack -e 40 -c 0 -i 67 -a 0 -x {3.0 0.0 29 ------- null}
+ -t 0.8652 -s 0 -d 3 -p tcp -e 2040 -c 0 -i 85 -a 0 -x {0.0 3.0 46 ------- null}
- -t 0.8652 -s 0 -d 3 -p tcp -e 2040 -c 0 -i 85 -a 0 -x {0.0 3.0 46 ------- null}
h -t 0.8652 -s 0 -d 3 -p tcp -e 2040 -c 0 -i 85 -a 0 -x {0.0 3.0 -1 ------- null}
r -t 0.86928 -s 3 -d 0 -p ack -e 40 -c 0 -i 68 -a 0 -x {3.0 0.0 30 ------- null}
+ -t 0.86928 -s 0 -d 3 -p tcp -e 2040 -c 0 -i 86 -a 0 -x {0.0 3.0 47 ------- null}
- -t 0.86928 -s 0 -d 3 -p tcp -e 2040 -c 0 -i 86 -a 0 -x {0.0 3.0 47 ------- null}
h -t 0.86928 -s 0 -d 3 -p tcp -e 2040 -c 0 -i 86 -a 0 -x {0.0 3.0 -1 ------- null}
r -t 0.87336 -s 3 -d 0 -p ack -e 40 -c 0 -i 69 -a 0 -x {3.0 0.0 31 ------- null}
+ -t 0.87336 -s 0 -d 3 -p tcp -e 2040 -c 0 -i 87 -a 0 -x {0.0 3.0 48 ------- null}
- -t 0.87336 -s 0 -d 3 -p tcp -e 2040 -c 0 -i 87 -a 0 -x {0.0 3.0 48 ------- null}
h -t 0.87336 -s 0 -d 3 -p tcp -e 2040 -c 0 -i 87 -a 0 -x {0.0 3.0 -1 ------- null}
r -t 0.87744 -s 3 -d 0 -p ack -e 40 -c 0 -i 70 -a 0 -x {3.0 0.0 32 ------- null}
+ -t 0.87744 -s 0 -d 3 -p tcp -e 2040 -c 0 -i 88 -a 0 -x {0.0 3.0 49 ------- null}
- -t 0.87744 -s 0 -d 3 -p tcp -e 2040 -c 0 -i 88 -a 0 -x {0.0 3.0 49 ------- null}
h -t 0.87744 -s 0 -d 3 -p tcp -e 2040 -c 0 -i 88 -a 0 -x {0.0 3.0 -1 ------- null}
r -t 0.88152 -s 3 -d 0 -p ack -e 40 -c 0 -i 71 -a 0 -x {3.0 0.0 33 ------- null}
+ -t 0.88152 -s 0 -d 3 -p tcp -e 2040 -c 0 -i 89 -a 0 -x {0.0 3.0 50 ------- null}
- -t 0.88152 -s 0 -d 3 -p tcp -e 2040 -c 0 -i 89 -a 0 -x {0.0 3.0 50 ------- null}
h -t 0.88152 -s 0 -d 3 -p tcp -e 2040 -c 0 -i 89 -a 0 -x {0.0 3.0 -1 ------- null}
r -t 0.92232 -s 0 -d 3 -p tcp -e 2040 -c 0 -i 72 -a 0 -x {0.0 3.0 34 ------- null}
+ -t 0.92232 -s 3 -d 0 -p ack -e 40 -c 0 -i 90 -a 0 -x {3.0 0.0 34 ------- null}
- -t 0.92232 -s 3 -d 0 -p ack -e 40 -c 0 -i 90 -a 0 -x {3.0 0.0 34 ------- null}
h -t 0.92232 -s 3 -d 0 -p ack -e 40 -c 0 -i 90 -a 0 -x {3.0 0.0 -1 ------- null}
r -t 0.92232 -s 1 -d 2 -p tcp -e 2040 -c 1 -i 73 -a 1 -x {1.0 2.0 2 ------- null}
+ -t 0.92232 -s 2 -d 1 -p ack -e 40 -c 1 -i 91 -a 1 -x {2.0 1.0 2 ------- null}
- -t 0.92232 -s 2 -d 1 -p ack -e 40 -c 1 -i 91 -a 1 -x {2.0 1.0 2 ------- null}
h -t 0.92232 -s 2 -d 1 -p ack -e 40 -c 1 -i 91 -a 1 -x {2.0 1.0 -1 ------- null}
r -t 0.9264 -s 0 -d 3 -p tcp -e 2040 -c 0 -i 74 -a 0 -x {0.0 3.0 35 ------- null}
+ -t 0.9264 -s 3 -d 0 -p ack -e 40 -c 0 -i 92 -a 0 -x {3.0 0.0 35 ------- null}
- -t 0.9264 -s 3 -d 0 -p ack -e 40 -c 0 -i 92 -a 0 -x {3.0 0.0 35 ------- null}
h -t 0.9264 -s 3 -d 0 -p ack -e 40 -c 0 -i 92 -a 0 -x {3.0 0.0 -1 ------- null}
r -t 0.93048 -s 0 -d 3 -p tcp -e 2040 -c 0 -i 75 -a 0 -x {0.0 3.0 36 ------- null}
+ -t 0.93048 -s 3 -d 0 -p ack -e 40 -c 0 -i 93 -a 0 -x {3.0 0.0 36 ------- null}
- -t 0.93048 -s 3 -d 0 -p ack -e 40 -c 0 -i 93 -a 0 -x {3.0 0.0 36 ------- null}
h -t 0.93048 -s 3 -d 0 -p ack -e 40 -c 0 -i 93 -a 0 -x {3.0 0.0 -1 ------- null}