0 0.0
0.20000000000000001 0.0
+ 0.4 0 3 tcp 2000 ------- 0 0.0 3.0 0 0
- 0.4 0 3 tcp 2000 ------- 0 0.0 3.0 0 0
+ 0.4 0 3 tcp 2040 ------- 0 0.0 3.0 1 1
+ 0.4 0 3 tcp 2040 ------- 0 0.0 3.0 2 2
+ 0.4 0 3 tcp 2040 ------- 0 0.0 3.0 3 3
+ 0.4 0 3 tcp 2040 ------- 0 0.0 3.0 4 4
+ 0.4 0 3 tcp 2040 ------- 0 0.0 3.0 5 5
+ 0.4 0 3 tcp 2040 ------- 0 0.0 3.0 6 6
+ 0.4 0 3 tcp 2040 ------- 0 0.0 3.0 7 7
+ 0.4 0 3 tcp 2040 ------- 0 0.0 3.0 8 8
+ 0.4 0 3 tcp 2040 ------- 0 0.0 3.0 9 9
+ 0.4 0 3 tcp 2040 ------- 0 0.0 3.0 10 10
+ 0.4 0 3 tcp 2040 ------- 0 0.0 3.0 11 11
+ 0.4 1 2 tcp 2000 ------- 1 1.0 2.0 0 12
- 0.4 1 2 tcp 2000 ------- 1 1.0 2.0 0 12
0.40000000000000002 0.0
- 0.404 0 3 tcp 2040 ------- 0 0.0 3.0 1 1
- 0.40808 0 3 tcp 2040 ------- 0 0.0 3.0 2 2
- 0.41216 0 3 tcp 2040 ------- 0 0.0 3.0 3 3
- 0.41624 0 3 tcp 2040 ------- 0 0.0 3.0 4 4
- 0.42032 0 3 tcp 2040 ------- 0 0.0 3.0 5 5
- 0.4244 0 3 tcp 2040 ------- 0 0.0 3.0 6 6
- 0.42848 0 3 tcp 2040 ------- 0 0.0 3.0 7 7
- 0.43256 0 3 tcp 2040 ------- 0 0.0 3.0 8 8
- 0.43664 0 3 tcp 2040 ------- 0 0.0 3.0 9 9
- 0.44072 0 3 tcp 2040 ------- 0 0.0 3.0 10 10
- 0.4448 0 3 tcp 2040 ------- 0 0.0 3.0 11 11
r 0.506 0 3 tcp 2000 ------- 0 0.0 3.0 0 0
+ 0.506 3 0 ack 40 ------- 0 3.0 0.0 0 13
- 0.506 3 0 ack 40 ------- 0 3.0 0.0 0 13
r 0.506 1 2 tcp 2000 ------- 1 1.0 2.0 0 12
+ 0.506 2 1 ack 40 ------- 1 2.0 1.0 0 14
- 0.506 2 1 ack 40 ------- 1 2.0 1.0 0 14
r 0.51008 0 3 tcp 2040 ------- 0 0.0 3.0 1 1
+ 0.51008 3 0 ack 40 ------- 0 3.0 0.0 1 15
- 0.51008 3 0 ack 40 ------- 0 3.0 0.0 1 15
r 0.51416 0 3 tcp 2040 ------- 0 0.0 3.0 2 2
+ 0.51416 3 0 ack 40 ------- 0 3.0 0.0 2 16
- 0.51416 3 0 ack 40 ------- 0 3.0 0.0 2 16
r 0.51824 0 3 tcp 2040 ------- 0 0.0 3.0 3 3
+ 0.51824 3 0 ack 40 ------- 0 3.0 0.0 3 17
- 0.51824 3 0 ack 40 ------- 0 3.0 0.0 3 17
r 0.52232 0 3 tcp 2040 ------- 0 0.0 3.0 4 4
+ 0.52232 3 0 ack 40 ------- 0 3.0 0.0 4 18
- 0.52232 3 0 ack 40 ------- 0 3.0 0.0 4 18
r 0.5264 0 3 tcp 2040 ------- 0 0.0 3.0 5 5
+ 0.5264 3 0 ack 40 ------- 0 3.0 0.0 5 19
- 0.5264 3 0 ack 40 ------- 0 3.0 0.0 5 19
r 0.53048 0 3 tcp 2040 ------- 0 0.0 3.0 6 6
+ 0.53048 3 0 ack 40 ------- 0 3.0 0.0 6 20
- 0.53048 3 0 ack 40 ------- 0 3.0 0.0 6 20
r 0.53456 0 3 tcp 2040 ------- 0 0.0 3.0 7 7
+ 0.53456 3 0 ack 40 ------- 0 3.0 0.0 7 21
- 0.53456 3 0 ack 40 ------- 0 3.0 0.0 7 21
r 0.53864 0 3 tcp 2040 ------- 0 0.0 3.0 8 8
+ 0.53864 3 0 ack 40 ------- 0 3.0 0.0 8 22
- 0.53864 3 0 ack 40 ------- 0 3.0 0.0 8 22
r 0.54272 0 3 tcp 2040 ------- 0 0.0 3.0 9 9
+ 0.54272 3 0 ack 40 ------- 0 3.0 0.0 9 23
- 0.54272 3 0 ack 40 ------- 0 3.0 0.0 9 23
r 0.5468 0 3 tcp 2040 ------- 0 0.0 3.0 10 10
+ 0.5468 3 0 ack 40 ------- 0 3.0 0.0 10 24
- 0.5468 3 0 ack 40 ------- 0 3.0 0.0 10 24
r 0.55088 0 3 tcp 2040 ------- 0 0.0 3.0 11 11
+ 0.55088 3 0 ack 40 ------- 0 3.0 0.0 11 25
- 0.55088 3 0 ack 40 ------- 0 3.0 0.0 11 25
0.60000000000000009 0.97760000000000002
r 0.60808 3 0 ack 40 ------- 0 3.0 0.0 0 13
+ 0.60808 0 3 tcp 2040 ------- 0 0.0 3.0 12 26
- 0.60808 0 3 tcp 2040 ------- 0 0.0 3.0 12 26
r 0.60808 2 1 ack 40 ------- 1 2.0 1.0 0 14
+ 0.60808 1 2 tcp 2040 ------- 1 1.0 2.0 1 27
- 0.60808 1 2 tcp 2040 ------- 1 1.0 2.0 1 27
r 0.61216 3 0 ack 40 ------- 0 3.0 0.0 1 15
+ 0.61216 0 3 tcp 2040 ------- 0 0.0 3.0 13 28
- 0.61216 0 3 tcp 2040 ------- 0 0.0 3.0 13 28
r 0.61624 3 0 ack 40 ------- 0 3.0 0.0 2 16
+ 0.61624 0 3 tcp 2040 ------- 0 0.0 3.0 14 29
- 0.61624 0 3 tcp 2040 ------- 0 0.0 3.0 14 29
r 0.62032 3 0 ack 40 ------- 0 3.0 0.0 3 17
+ 0.62032 0 3 tcp 2040 ------- 0 0.0 3.0 15 30
- 0.62032 0 3 tcp 2040 ------- 0 0.0 3.0 15 30
r 0.6244 3 0 ack 40 ------- 0 3.0 0.0 4 18
+ 0.6244 0 3 tcp 2040 ------- 0 0.0 3.0 16 31
- 0.6244 0 3 tcp 2040 ------- 0 0.0 3.0 16 31
r 0.62848 3 0 ack 40 ------- 0 3.0 0.0 5 19
+ 0.62848 0 3 tcp 2040 ------- 0 0.0 3.0 17 32
- 0.62848 0 3 tcp 2040 ------- 0 0.0 3.0 17 32
r 0.63256 3 0 ack 40 ------- 0 3.0 0.0 6 20
+ 0.63256 0 3 tcp 2040 ------- 0 0.0 3.0 18 33
- 0.63256 0 3 tcp 2040 ------- 0 0.0 3.0 18 33
r 0.63664 3 0 ack 40 ------- 0 3.0 0.0 7 21
+ 0.63664 0 3 tcp 2040 ------- 0 0.0 3.0 19 34
- 0.63664 0 3 tcp 2040 ------- 0 0.0 3.0 19 34
r 0.64072 3 0 ack 40 ------- 0 3.0 0.0 8 22
+ 0.64072 0 3 tcp 2040 ------- 0 0.0 3.0 20 35
- 0.64072 0 3 tcp 2040 ------- 0 0.0 3.0 20 35
r 0.6448 3 0 ack 40 ------- 0 3.0 0.0 9 23
+ 0.6448 0 3 tcp 2040 ------- 0 0.0 3.0 21 36
- 0.6448 0 3 tcp 2040 ------- 0 0.0 3.0 21 36
r 0.64888 3 0 ack 40 ------- 0 3.0 0.0 10 24
+ 0.64888 0 3 tcp 2040 ------- 0 0.0 3.0 22 37
- 0.64888 0 3 tcp 2040 ------- 0 0.0 3.0 22 37
r 0.65296 3 0 ack 40 ------- 0 3.0 0.0 11 25
+ 0.65296 0 3 tcp 2040 ------- 0 0.0 3.0 23 38
- 0.65296 0 3 tcp 2040 ------- 0 0.0 3.0 23 38
r 0.71416 0 3 tcp 2040 ------- 0 0.0 3.0 12 26
+ 0.71416 3 0 ack 40 ------- 0 3.0 0.0 12 39
- 0.71416 3 0 ack 40 ------- 0 3.0 0.0 12 39
r 0.71416 1 2 tcp 2040 ------- 1 1.0 2.0 1 27
+ 0.71416 2 1 ack 40 ------- 1 2.0 1.0 1 40
- 0.71416 2 1 ack 40 ------- 1 2.0 1.0 1 40
r 0.71824 0 3 tcp 2040 ------- 0 0.0 3.0 13 28
+ 0.71824 3 0 ack 40 ------- 0 3.0 0.0 13 41
- 0.71824 3 0 ack 40 ------- 0 3.0 0.0 13 41
r 0.72232 0 3 tcp 2040 ------- 0 0.0 3.0 14 29
+ 0.72232 3 0 ack 40 ------- 0 3.0 0.0 14 42
- 0.72232 3 0 ack 40 ------- 0 3.0 0.0 14 42
r 0.7264 0 3 tcp 2040 ------- 0 0.0 3.0 15 30
+ 0.7264 3 0 ack 40 ------- 0 3.0 0.0 15 43
- 0.7264 3 0 ack 40 ------- 0 3.0 0.0 15 43
r 0.73048 0 3 tcp 2040 ------- 0 0.0 3.0 16 31
+ 0.73048 3 0 ack 40 ------- 0 3.0 0.0 16 44
- 0.73048 3 0 ack 40 ------- 0 3.0 0.0 16 44
r 0.73456 0 3 tcp 2040 ------- 0 0.0 3.0 17 32
+ 0.73456 3 0 ack 40 ------- 0 3.0 0.0 17 45
- 0.73456 3 0 ack 40 ------- 0 3.0 0.0 17 45
r 0.73864 0 3 tcp 2040 ------- 0 0.0 3.0 18 33
+ 0.73864 3 0 ack 40 ------- 0 3.0 0.0 18 46
- 0.73864 3 0 ack 40 ------- 0 3.0 0.0 18 46
r 0.74272 0 3 tcp 2040 ------- 0 0.0 3.0 19 34
+ 0.74272 3 0 ack 40 ------- 0 3.0 0.0 19 47
- 0.74272 3 0 ack 40 ------- 0 3.0 0.0 19 47
r 0.7468 0 3 tcp 2040 ------- 0 0.0 3.0 20 35
+ 0.7468 3 0 ack 40 ------- 0 3.0 0.0 20 48
- 0.7468 3 0 ack 40 ------- 0 3.0 0.0 20 48
r 0.75088 0 3 tcp 2040 ------- 0 0.0 3.0 21 36
+ 0.75088 3 0 ack 40 ------- 0 3.0 0.0 21 49
- 0.75088 3 0 ack 40 ------- 0 3.0 0.0 21 49
r 0.75496 0 3 tcp 2040 ------- 0 0.0 3.0 22 37
+ 0.75496 3 0 ack 40 ------- 0 3.0 0.0 22 50
- 0.75496 3 0 ack 40 ------- 0 3.0 0.0 22 50
r 0.75904 0 3 tcp 2040 ------- 0 0.0 3.0 23 38
+ 0.75904 3 0 ack 40 ------- 0 3.0 0.0 23 51
- 0.75904 3 0 ack 40 ------- 0 3.0 0.0 23 51
0.80000000000000004 0.97919999999999996
r 0.81624 3 0 ack 40 ------- 0 3.0 0.0 12 39
+ 0.81624 0 3 tcp 2040 ------- 0 0.0 3.0 24 52
- 0.81624 0 3 tcp 2040 ------- 0 0.0 3.0 24 52
r 0.81624 2 1 ack 40 ------- 1 2.0 1.0 1 40
+ 0.81624 1 2 tcp 2040 ------- 1 1.0 2.0 2 53
- 0.81624 1 2 tcp 2040 ------- 1 1.0 2.0 2 53
r 0.82032 3 0 ack 40 ------- 0 3.0 0.0 13 41
+ 0.82032 0 3 tcp 2040 ------- 0 0.0 3.0 25 54
- 0.82032 0 3 tcp 2040 ------- 0 0.0 3.0 25 54
r 0.8244 3 0 ack 40 ------- 0 3.0 0.0 14 42
+ 0.8244 0 3 tcp 2040 ------- 0 0.0 3.0 26 55
- 0.8244 0 3 tcp 2040 ------- 0 0.0 3.0 26 55
r 0.82848 3 0 ack 40 ------- 0 3.0 0.0 15 43
+ 0.82848 0 3 tcp 2040 ------- 0 0.0 3.0 27 56
- 0.82848 0 3 tcp 2040 ------- 0 0.0 3.0 27 56
r 0.83256 3 0 ack 40 ------- 0 3.0 0.0 16 44
+ 0.83256 0 3 tcp 2040 ------- 0 0.0 3.0 28 57
- 0.83256 0 3 tcp 2040 ------- 0 0.0 3.0 28 57
r 0.83664 3 0 ack 40 ------- 0 3.0 0.0 17 45
+ 0.83664 0 3 tcp 2040 ------- 0 0.0 3.0 29 58
- 0.83664 0 3 tcp 2040 ------- 0 0.0 3.0 29 58
r 0.84072 3 0 ack 40 ------- 0 3.0 0.0 18 46
+ 0.84072 0 3 tcp 2040 ------- 0 0.0 3.0 30 59
- 0.84072 0 3 tcp 2040 ------- 0 0.0 3.0 30 59
r 0.8448 3 0 ack 40 ------- 0 3.0 0.0 19 47
+ 0.8448 0 3 tcp 2040 ------- 0 0.0 3.0 31 60
- 0.8448 0 3 tcp 2040 ------- 0 0.0 3.0 31 60
r 0.84888 3 0 ack 40 ------- 0 3.0 0.0 20 48
+ 0.84888 0 3 tcp 2040 ------- 0 0.0 3.0 32 61
- 0.84888 0 3 tcp 2040 ------- 0 0.0 3.0 32 61
r 0.85296 3 0 ack 40 ------- 0 3.0 0.0 21 49
+ 0.85296 0 3 tcp 2040 ------- 0 0.0 3.0 33 62
- 0.85296 0 3 tcp 2040 ------- 0 0.0 3.0 33 62
r 0.85704 3 0 ack 40 ------- 0 3.0 0.0 22 50
+ 0.85704 0 3 tcp 2040 ------- 0 0.0 3.0 34 63
- 0.85704 0 3 tcp 2040 ------- 0 0.0 3.0 34 63
r 0.86112 3 0 ack 40 ------- 0 3.0 0.0 23 51
+ 0.86112 0 3 tcp 2040 ------- 0 0.0 3.0 35 64
- 0.86112 0 3 tcp 2040 ------- 0 0.0 3.0 35 64
r 0.92232 0 3 tcp 2040 ------- 0 0.0 3.0 24 52
+ 0.92232 3 0 ack 40 ------- 0 3.0 0.0 24 65
- 0.92232 3 0 ack 40 ------- 0 3.0 0.0 24 65
r 0.92232 1 2 tcp 2040 ------- 1 1.0 2.0 2 53
+ 0.92232 2 1 ack 40 ------- 1 2.0 1.0 2 66
- 0.92232 2 1 ack 40 ------- 1 2.0 1.0 2 66
r 0.9264 0 3 tcp 2040 ------- 0 0.0 3.0 25 54
+ 0.9264 3 0 ack 40 ------- 0 3.0 0.0 25 67
- 0.9264 3 0 ack 40 ------- 0 3.0 0.0 25 67
r 0.93048 0 3 tcp 2040 ------- 0 0.0 3.0 26 55
+ 0.93048 3 0 ack 40 ------- 0 3.0 0.0 26 68
- 0.93048 3 0 ack 40 ------- 0 3.0 0.0 26 68
r 0.93456 0 3 tcp 2040 ------- 0 0.0 3.0 27 56
+ 0.93456 3 0 ack 40 ------- 0 3.0 0.0 27 69
- 0.93456 3 0 ack 40 ------- 0 3.0 0.0 27 69
r 0.93864 0 3 tcp 2040 ------- 0 0.0 3.0 28 57
+ 0.93864 3 0 ack 40 ------- 0 3.0 0.0 28 70
- 0.93864 3 0 ack 40 ------- 0 3.0 0.0 28 70
r 0.94272 0 3 tcp 2040 ------- 0 0.0 3.0 29 58
+ 0.94272 3 0 ack 40 ------- 0 3.0 0.0 29 71
- 0.94272 3 0 ack 40 ------- 0 3.0 0.0 29 71
r 0.9468 0 3 tcp 2040 ------- 0 0.0 3.0 30 59
+ 0.9468 3 0 ack 40 ------- 0 3.0 0.0 30 72
- 0.9468 3 0 ack 40 ------- 0 3.0 0.0 30 72
r 0.95088 0 3 tcp 2040 ------- 0 0.0 3.0 31 60
+ 0.95088 3 0 ack 40 ------- 0 3.0 0.0 31 73
- 0.95088 3 0 ack 40 ------- 0 3.0 0.0 31 73
r 0.95496 0 3 tcp 2040 ------- 0 0.0 3.0 32 61
+ 0.95496 3 0 ack 40 ------- 0 3.0 0.0 32 74
- 0.95496 3 0 ack 40 ------- 0 3.0 0.0 32 74
r 0.95904 0 3 tcp 2040 ------- 0 0.0 3.0 33 62
+ 0.95904 3 0 ack 40 ------- 0 3.0 0.0 33 75
- 0.95904 3 0 ack 40 ------- 0 3.0 0.0 33 75
r 0.96312 0 3 tcp 2040 ------- 0 0.0 3.0 34 63
+ 0.96312 3 0 ack 40 ------- 0 3.0 0.0 34 76
- 0.96312 3 0 ack 40 ------- 0 3.0 0.0 34 76
r 0.9672 0 3 tcp 2040 ------- 0 0.0 3.0 35 64
+ 0.9672 3 0 ack 40 ------- 0 3.0 0.0 35 77
- 0.9672 3 0 ack 40 ------- 0 3.0 0.0 35 77
1 0.97919999999999996
r 1.0244 3 0 ack 40 ------- 0 3.0 0.0 24 65
+ 1.0244 0 3 tcp 2040 ------- 0 0.0 3.0 36 78
- 1.0244 0 3 tcp 2040 ------- 0 0.0 3.0 36 78
r 1.0244 2 1 ack 40 ------- 1 2.0 1.0 2 66
+ 1.0244 1 2 tcp 2040 ------- 1 1.0 2.0 3 79
- 1.0244 1 2 tcp 2040 ------- 1 1.0 2.0 3 79
r 1.02848 3 0 ack 40 ------- 0 3.0 0.0 25 67
+ 1.02848 0 3 tcp 2040 ------- 0 0.0 3.0 37 80
- 1.02848 0 3 tcp 2040 ------- 0 0.0 3.0 37 80
r 1.03256 3 0 ack 40 ------- 0 3.0 0.0 26 68
+ 1.03256 0 3 tcp 2040 ------- 0 0.0 3.0 38 81
- 1.03256 0 3 tcp 2040 ------- 0 0.0 3.0 38 81
r 1.03664 3 0 ack 40 ------- 0 3.0 0.0 27 69
+ 1.03664 0 3 tcp 2040 ------- 0 0.0 3.0 39 82
- 1.03664 0 3 tcp 2040 ------- 0 0.0 3.0 39 82
r 1.04072 3 0 ack 40 ------- 0 3.0 0.0 28 70
+ 1.04072 0 3 tcp 2040 ------- 0 0.0 3.0 40 83
- 1.04072 0 3 tcp 2040 ------- 0 0.0 3.0 40 83
r 1.0448 3 0 ack 40 ------- 0 3.0 0.0 29 71
+ 1.0448 0 3 tcp 2040 ------- 0 0.0 3.0 41 84
- 1.0448 0 3 tcp 2040 ------- 0 0.0 3.0 41 84
r 1.04888 3 0 ack 40 ------- 0 3.0 0.0 30 72
+ 1.04888 0 3 tcp 2040 ------- 0 0.0 3.0 42 85
- 1.04888 0 3 tcp 2040 ------- 0 0.0 3.0 42 85
r 1.05296 3 0 ack 40 ------- 0 3.0 0.0 31 73
+ 1.05296 0 3 tcp 2040 ------- 0 0.0 3.0 43 86
- 1.05296 0 3 tcp 2040 ------- 0 0.0 3.0 43 86
r 1.05704 3 0 ack 40 ------- 0 3.0 0.0 32 74
+ 1.05704 0 3 tcp 2040 ------- 0 0.0 3.0 44 87
- 1.05704 0 3 tcp 2040 ------- 0 0.0 3.0 44 87
r 1.06112 3 0 ack 40 ------- 0 3.0 0.0 33 75
+ 1.06112 0 3 tcp 2040 ------- 0 0.0 3.0 45 88
- 1.06112 0 3 tcp 2040 ------- 0 0.0 3.0 45 88
r 1.0652 3 0 ack 40 ------- 0 3.0 0.0 34 76
+ 1.0652 0 3 tcp 2040 ------- 0 0.0 3.0 46 89
- 1.0652 0 3 tcp 2040 ------- 0 0.0 3.0 46 89
r 1.06928 3 0 ack 40 ------- 0 3.0 0.0 35 77
+ 1.06928 0 3 tcp 2040 ------- 0 0.0 3.0 47 90
- 1.06928 0 3 tcp 2040 ------- 0 0.0 3.0 47 90
r 1.13048 0 3 tcp 2040 ------- 0 0.0 3.0 36 78
+ 1.13048 3 0 ack 40 ------- 0 3.0 0.0 36 91
- 1.13048 3 0 ack 40 ------- 0 3.0 0.0 36 91
r 1.13048 1 2 tcp 2040 ------- 1 1.0 2.0 3 79
+ 1.13048 2 1 ack 40 ------- 1 2.0 1.0 3 92
- 1.13048 2 1 ack 40 ------- 1 2.0 1.0 3 92
r 1.13456 0 3 tcp 2040 ------- 0 0.0 3.0 37 80
+ 1.13456 3 0 ack 40 ------- 0 3.0 0.0 37 93
- 1.13456 3 0 ack 40 ------- 0 3.0 0.0 37 93
r 1.13864 0 3 tcp 2040 ------- 0 0.0 3.0 38 81
+ 1.13864 3 0 ack 40 ------- 0 3.0 0.0 38 94
- 1.13864 3 0 ack 40 ------- 0 3.0 0.0 38 94
r 1.14272 0 3 tcp 2040 ------- 0 0.0 3.0 39 82
+ 1.14272 3 0 ack 40 ------- 0 3.0 0.0 39 95
- 1.14272 3 0 ack 40 ------- 0 3.0 0.0 39 95
r 1.1468 0 3 tcp 2040 ------- 0 0.0 3.0 40 83
+ 1.1468 3 0 ack 40 ------- 0 3.0 0.0 40 96
- 1.1468 3 0 ack 40 ------- 0 3.0 0.0 40 96
r 1.15088 0 3 tcp 2040 ------- 0 0.0 3.0 41 84
+ 1.15088 3 0 ack 40 ------- 0 3.0 0.0 41 97
- 1.15088 3 0 ack 40 ------- 0 3.0 0.0 41 97
r 1.15496 0 3 tcp 2040 ------- 0 0.0 3.0 42 85
+ 1.15496 3 0 ack 40 ------- 0 3.0 0.0 42 98
- 1.15496 3 0 ack 40 ------- 0 3.0 0.0 42 98
r 1.15904 0 3 tcp 2040 ------- 0 0.0 3.0 43 86
+ 1.15904 3 0 ack 40 ------- 0 3.0 0.0 43 99
- 1.15904 3 0 ack 40 ------- 0 3.0 0.0 43 99
r 1.16312 0 3 tcp 2040 ------- 0 0.0 3.0 44 87
+ 1.16312 3 0 ack 40 ------- 0 3.0 0.0 44 100
- 1.16312 3 0 ack 40 ------- 0 3.0 0.0 44 100
r 1.1672 0 3 tcp 2040 ------- 0 0.0 3.0 45 88
+ 1.1672 3 0 ack 40 ------- 0 3.0 0.0 45 101
- 1.1672 3 0 ack 40 ------- 0 3.0 0.0 45 101
r 1.17128 0 3 tcp 2040 ------- 0 0.0 3.0 46 89
+ 1.17128 3 0 ack 40 ------- 0 3.0 0.0 46 102
- 1.17128 3 0 ack 40 ------- 0 3.0 0.0 46 102
r 1.17536 0 3 tcp 2040 ------- 0 0.0 3.0 47 90
+ 1.17536 3 0 ack 40 ------- 0 3.0 0.0 47 103
- 1.17536 3 0 ack 40 ------- 0 3.0 0.0 47 103
1.2 0.97919999999999996
r 1.23256 3 0 ack 40 ------- 0 3.0 0.0 36 91
+ 1.23256 0 3 tcp 2040 ------- 0 0.0 3.0 48 104
- 1.23256 0 3 tcp 2040 ------- 0 0.0 3.0 48 104
r 1.23256 2 1 ack 40 ------- 1 2.0 1.0 3 92
+ 1.23256 1 2 tcp 2040 ------- 1 1.0 2.0 4 105
- 1.23256 1 2 tcp 2040 ------- 1 1.0 2.0 4 105
r 1.23664 3 0 ack 40 ------- 0 3.0 0.0 37 93
+ 1.23664 0 3 tcp 2040 ------- 0 0.0 3.0 49 106
- 1.23664 0 3 tcp 2040 ------- 0 0.0 3.0 49 106
r 1.24072 3 0 ack 40 ------- 0 3.0 0.0 38 94
+ 1.24072 0 3 tcp 2040 ------- 0 0.0 3.0 50 107
- 1.24072 0 3 tcp 2040 ------- 0 0.0 3.0 50 107
r 1.2448 3 0 ack 40 ------- 0 3.0 0.0 39 95
+ 1.2448 0 3 tcp 2040 ------- 0 0.0 3.0 51 108
- 1.2448 0 3 tcp 2040 ------- 0 0.0 3.0 51 108
r 1.24888 3 0 ack 40 ------- 0 3.0 0.0 40 96
+ 1.24888 0 3 tcp 2040 ------- 0 0.0 3.0 52 109
- 1.24888 0 3 tcp 2040 ------- 0 0.0 3.0 52 109
r 1.25296 3 0 ack 40 ------- 0 3.0 0.0 41 97
+ 1.25296 0 3 tcp 2040 ------- 0 0.0 3.0 53 110
- 1.25296 0 3 tcp 2040 ------- 0 0.0 3.0 53 110
r 1.25704 3 0 ack 40 ------- 0 3.0 0.0 42 98
+ 1.25704 0 3 tcp 2040 ------- 0 0.0 3.0 54 111
- 1.25704 0 3 tcp 2040 ------- 0 0.0 3.0 54 111
r 1.26112 3 0 ack 40 ------- 0 3.0 0.0 43 99
+ 1.26112 0 3 tcp 2040 ------- 0 0.0 3.0 55 112
- 1.26112 0 3 tcp 2040 ------- 0 0.0 3.0 55 112
r 1.2652 3 0 ack 40 ------- 0 3.0 0.0 44 100
+ 1.2652 0 3 tcp 2040 ------- 0 0.0 3.0 56 113
- 1.2652 0 3 tcp 2040 ------- 0 0.0 3.0 56 113
r 1.26928 3 0 ack 40 ------- 0 3.0 0.0 45 101
+ 1.26928 0 3 tcp 2040 ------- 0 0.0 3.0 57 114
- 1.26928 0 3 tcp 2040 ------- 0 0.0 3.0 57 114
r 1.27336 3 0 ack 40 ------- 0 3.0 0.0 46 102
+ 1.27336 0 3 tcp 2040 ------- 0 0.0 3.0 58 115
- 1.27336 0 3 tcp 2040 ------- 0 0.0 3.0 58 115
r 1.27744 3 0 ack 40 ------- 0 3.0 0.0 47 103
+ 1.27744 0 3 tcp 2040 ------- 0 0.0 3.0 59 116
- 1.27744 0 3 tcp 2040 ------- 0 0.0 3.0 59 116
r 1.33864 0 3 tcp 2040 ------- 0 0.0 3.0 48 104
+ 1.33864 3 0 ack 40 ------- 0 3.0 0.0 48 117
- 1.33864 3 0 ack 40 ------- 0 3.0 0.0 48 117
r 1.33864 1 2 tcp 2040 ------- 1 1.0 2.0 4 105
+ 1.33864 2 1 ack 40 ------- 1 2.0 1.0 4 118
- 1.33864 2 1 ack 40 ------- 1 2.0 1.0 4 118
r 1.34272 0 3 tcp 2040 ------- 0 0.0 3.0 49 106
+ 1.34272 3 0 ack 40 ------- 0 3.0 0.0 49 119
- 1.34272 3 0 ack 40 ------- 0 3.0 0.0 49 119
r 1.3468 0 3 tcp 2040 ------- 0 0.0 3.0 50 107
+ 1.3468 3 0 ack 40 ------- 0 3.0 0.0 50 120
- 1.3468 3 0 ack 40 ------- 0 3.0 0.0 50 120
r 1.35088 0 3 tcp 2040 ------- 0 0.0 3.0 51 108
+ 1.35088 3 0 ack 40 ------- 0 3.0 0.0 51 121
- 1.35088 3 0 ack 40 ------- 0 3.0 0.0 51 121
r 1.35496 0 3 tcp 2040 ------- 0 0.0 3.0 52 109
+ 1.35496 3 0 ack 40 ------- 0 3.0 0.0 52 122
- 1.35496 3 0 ack 40 ------- 0 3.0 0.0 52 122
r 1.35904 0 3 tcp 2040 ------- 0 0.0 3.0 53 110
+ 1.35904 3 0 ack 40 ------- 0 3.0 0.0 53 123
- 1.35904 3 0 ack 40 ------- 0 3.0 0.0 53 123
r 1.36312 0 3 tcp 2040 ------- 0 0.0 3.0 54 111
+ 1.36312 3 0 ack 40 ------- 0 3.0 0.0 54 124
- 1.36312 3 0 ack 40 ------- 0 3.0 0.0 54 124
r 1.3672 0 3 tcp 2040 ------- 0 0.0 3.0 55 112
+ 1.3672 3 0 ack 40 ------- 0 3.0 0.0 55 125
- 1.3672 3 0 ack 40 ------- 0 3.0 0.0 55 125
r 1.37128 0 3 tcp 2040 ------- 0 0.0 3.0 56 113
+ 1.37128 3 0 ack 40 ------- 0 3.0 0.0 56 126
- 1.37128 3 0 ack 40 ------- 0 3.0 0.0 56 126
r 1.37536 0 3 tcp 2040 ------- 0 0.0 3.0 57 114
+ 1.37536 3 0 ack 40 ------- 0 3.0 0.0 57 127
- 1.37536 3 0 ack 40 ------- 0 3.0 0.0 57 127
r 1.37944 0 3 tcp 2040 ------- 0 0.0 3.0 58 115
+ 1.37944 3 0 ack 40 ------- 0 3.0 0.0 58 128
- 1.37944 3 0 ack 40 ------- 0 3.0 0.0 58 128
r 1.38352 0 3 tcp 2040 ------- 0 0.0 3.0 59 116
+ 1.38352 3 0 ack 40 ------- 0 3.0 0.0 59 129
- 1.38352 3 0 ack 40 ------- 0 3.0 0.0 59 129
1.3999999999999999 0.97919999999999996
r 1.44072 3 0 ack 40 ------- 0 3.0 0.0 48 117
+ 1.44072 0 3 tcp 2040 ------- 0 0.0 3.0 60 130
- 1.44072 0 3 tcp 2040 ------- 0 0.0 3.0 60 130
r 1.44072 2 1 ack 40 ------- 1 2.0 1.0 4 118
+ 1.44072 1 2 tcp 2040 ------- 1 1.0 2.0 5 131
- 1.44072 1 2 tcp 2040 ------- 1 1.0 2.0 5 131
r 1.4448 3 0 ack 40 ------- 0 3.0 0.0 49 119
+ 1.4448 0 3 tcp 2040 ------- 0 0.0 3.0 61 132
- 1.4448 0 3 tcp 2040 ------- 0 0.0 3.0 61 132
r 1.44888 3 0 ack 40 ------- 0 3.0 0.0 50 120
+ 1.44888 0 3 tcp 2040 ------- 0 0.0 3.0 62 133
- 1.44888 0 3 tcp 2040 ------- 0 0.0 3.0 62 133
r 1.45296 3 0 ack 40 ------- 0 3.0 0.0 51 121
+ 1.45296 0 3 tcp 2040 ------- 0 0.0 3.0 63 134
- 1.45296 0 3 tcp 2040 ------- 0 0.0 3.0 63 134
r 1.45704 3 0 ack 40 ------- 0 3.0 0.0 52 122
+ 1.45704 0 3 tcp 2040 ------- 0 0.0 3.0 64 135
- 1.45704 0 3 tcp 2040 ------- 0 0.0 3.0 64 135
r 1.46112 3 0 ack 40 ------- 0 3.0 0.0 53 123
+ 1.46112 0 3 tcp 2040 ------- 0 0.0 3.0 65 136
- 1.46112 0 3 tcp 2040 ------- 0 0.0 3.0 65 136
r 1.4652 3 0 ack 40 ------- 0 3.0 0.0 54 124
+ 1.4652 0 3 tcp 2040 ------- 0 0.0 3.0 66 137
- 1.4652 0 3 tcp 2040 ------- 0 0.0 3.0 66 137
r 1.46928 3 0 ack 40 ------- 0 3.0 0.0 55 125
+ 1.46928 0 3 tcp 2040 ------- 0 0.0 3.0 67 138
- 1.46928 0 3 tcp 2040 ------- 0 0.0 3.0 67 138
r 1.47336 3 0 ack 40 ------- 0 3.0 0.0 56 126
+ 1.47336 0 3 tcp 2040 ------- 0 0.0 3.0 68 139
- 1.47336 0 3 tcp 2040 ------- 0 0.0 3.0 68 139
r 1.47744 3 0 ack 40 ------- 0 3.0 0.0 57 127
+ 1.47744 0 3 tcp 2040 ------- 0 0.0 3.0 69 140
- 1.47744 0 3 tcp 2040 ------- 0 0.0 3.0 69 140
r 1.48152 3 0 ack 40 ------- 0 3.0 0.0 58 128
+ 1.48152 0 3 tcp 2040 ------- 0 0.0 3.0 70 141
- 1.48152 0 3 tcp 2040 ------- 0 0.0 3.0 70 141
r 1.4856 3 0 ack 40 ------- 0 3.0 0.0 59 129
+ 1.4856 0 3 tcp 2040 ------- 0 0.0 3.0 71 142
- 1.4856 0 3 tcp 2040 ------- 0 0.0 3.0 71 142
r 1.5468 0 3 tcp 2040 ------- 0 0.0 3.0 60 130
+ 1.5468 3 0 ack 40 ------- 0 3.0 0.0 60 143
- 1.5468 3 0 ack 40 ------- 0 3.0 0.0 60 143
r 1.5468 1 2 tcp 2040 ------- 1 1.0 2.0 5 131
+ 1.5468 2 1 ack 40 ------- 1 2.0 1.0 5 144
- 1.5468 2 1 ack 40 ------- 1 2.0 1.0 5 144
r 1.55088 0 3 tcp 2040 ------- 0 0.0 3.0 61 132
+ 1.55088 3 0 ack 40 ------- 0 3.0 0.0 61 145
- 1.55088 3 0 ack 40 ------- 0 3.0 0.0 61 145
r 1.55496 0 3 tcp 2040 ------- 0 0.0 3.0 62 133
+ 1.55496 3 0 ack 40 ------- 0 3.0 0.0 62 146
- 1.55496 3 0 ack 40 ------- 0 3.0 0.0 62 146
r 1.55904 0 3 tcp 2040 ------- 0 0.0 3.0 63 134
+ 1.55904 3 0 ack 40 ------- 0 3.0 0.0 63 147
- 1.55904 3 0 ack 40 ------- 0 3.0 0.0 63 147
r 1.56312 0 3 tcp 2040 ------- 0 0.0 3.0 64 135
+ 1.56312 3 0 ack 40 ------- 0 3.0 0.0 64 148
- 1.56312 3 0 ack 40 ------- 0 3.0 0.0 64 148
r 1.5672 0 3 tcp 2040 ------- 0 0.0 3.0 65 136
+ 1.5672 3 0 ack 40 ------- 0 3.0 0.0 65 149
- 1.5672 3 0 ack 40 ------- 0 3.0 0.0 65 149
r 1.57128 0 3 tcp 2040 ------- 0 0.0 3.0 66 137
+ 1.57128 3 0 ack 40 ------- 0 3.0 0.0 66 150
- 1.57128 3 0 ack 40 ------- 0 3.0 0.0 66 150
r 1.57536 0 3 tcp 2040 ------- 0 0.0 3.0 67 138
+ 1.57536 3 0 ack 40 ------- 0 3.0 0.0 67 151
- 1.57536 3 0 ack 40 ------- 0 3.0 0.0 67 151
r 1.57944 0 3 tcp 2040 ------- 0 0.0 3.0 68 139
+ 1.57944 3 0 ack 40 ------- 0 3.0 0.0 68 152
- 1.57944 3 0 ack 40 ------- 0 3.0 0.0 68 152
r 1.58352 0 3 tcp 2040 ------- 0 0.0 3.0 69 140
+ 1.58352 3 0 ack 40 ------- 0 3.0 0.0 69 153
- 1.58352 3 0 ack 40 ------- 0 3.0 0.0 69 153
r 1.5876 0 3 tcp 2040 ------- 0 0.0 3.0 70 141
+ 1.5876 3 0 ack 40 ------- 0 3.0 0.0 70 154
- 1.5876 3 0 ack 40 ------- 0 3.0 0.0 70 154
r 1.59168 0 3 tcp 2040 ------- 0 0.0 3.0 71 142
+ 1.59168 3 0 ack 40 ------- 0 3.0 0.0 71 155
- 1.59168 3 0 ack 40 ------- 0 3.0 0.0 71 155
1.5999999999999999 0.97919999999999996
r 1.64888 3 0 ack 40 ------- 0 3.0 0.0 60 143
+ 1.64888 0 3 tcp 2040 ------- 0 0.0 3.0 72 156
- 1.64888 0 3 tcp 2040 ------- 0 0.0 3.0 72 156
r 1.64888 2 1 ack 40 ------- 1 2.0 1.0 5 144
+ 1.64888 1 2 tcp 2040 ------- 1 1.0 2.0 6 157
- 1.64888 1 2 tcp 2040 ------- 1 1.0 2.0 6 157
r 1.65296 3 0 ack 40 ------- 0 3.0 0.0 61 145
+ 1.65296 0 3 tcp 2040 ------- 0 0.0 3.0 73 158
- 1.65296 0 3 tcp 2040 ------- 0 0.0 3.0 73 158
r 1.65704 3 0 ack 40 ------- 0 3.0 0.0 62 146
+ 1.65704 0 3 tcp 2040 ------- 0 0.0 3.0 74 159
- 1.65704 0 3 tcp 2040 ------- 0 0.0 3.0 74 159
r 1.66112 3 0 ack 40 ------- 0 3.0 0.0 63 147
+ 1.66112 0 3 tcp 2040 ------- 0 0.0 3.0 75 160
- 1.66112 0 3 tcp 2040 ------- 0 0.0 3.0 75 160
r 1.6652 3 0 ack 40 ------- 0 3.0 0.0 64 148
+ 1.6652 0 3 tcp 2040 ------- 0 0.0 3.0 76 161
- 1.6652 0 3 tcp 2040 ------- 0 0.0 3.0 76 161
r 1.66928 3 0 ack 40 ------- 0 3.0 0.0 65 149
+ 1.66928 0 3 tcp 2040 ------- 0 0.0 3.0 77 162
- 1.66928 0 3 tcp 2040 ------- 0 0.0 3.0 77 162
r 1.67336 3 0 ack 40 ------- 0 3.0 0.0 66 150
+ 1.67336 0 3 tcp 2040 ------- 0 0.0 3.0 78 163
- 1.67336 0 3 tcp 2040 ------- 0 0.0 3.0 78 163
r 1.67744 3 0 ack 40 ------- 0 3.0 0.0 67 151
+ 1.67744 0 3 tcp 2040 ------- 0 0.0 3.0 79 164
- 1.67744 0 3 tcp 2040 ------- 0 0.0 3.0 79 164
r 1.68152 3 0 ack 40 ------- 0 3.0 0.0 68 152
+ 1.68152 0 3 tcp 2040 ------- 0 0.0 3.0 80 165
- 1.68152 0 3 tcp 2040 ------- 0 0.0 3.0 80 165
r 1.6856 3 0 ack 40 ------- 0 3.0 0.0 69 153
+ 1.6856 0 3 tcp 2040 ------- 0 0.0 3.0 81 166
- 1.6856 0 3 tcp 2040 ------- 0 0.0 3.0 81 166
r 1.68968 3 0 ack 40 ------- 0 3.0 0.0 70 154
+ 1.68968 0 3 tcp 2040 ------- 0 0.0 3.0 82 167
- 1.68968 0 3 tcp 2040 ------- 0 0.0 3.0 82 167
r 1.69376 3 0 ack 40 ------- 0 3.0 0.0 71 155
+ 1.69376 0 3 tcp 2040 ------- 0 0.0 3.0 83 168
- 1.69376 0 3 tcp 2040 ------- 0 0.0 3.0 83 168
r 1.75496 0 3 tcp 2040 ------- 0 0.0 3.0 72 156
+ 1.75496 3 0 ack 40 ------- 0 3.0 0.0 72 169
- 1.75496 3 0 ack 40 ------- 0 3.0 0.0 72 169
r 1.75496 1 2 tcp 2040 ------- 1 1.0 2.0 6 157
+ 1.75496 2 1 ack 40 ------- 1 2.0 1.0 6 170
- 1.75496 2 1 ack 40 ------- 1 2.0 1.0 6 170
r 1.75904 0 3 tcp 2040 ------- 0 0.0 3.0 73 158
+ 1.75904 3 0 ack 40 ------- 0 3.0 0.0 73 171
- 1.75904 3 0 ack 40 ------- 0 3.0 0.0 73 171
r 1.76312 0 3 tcp 2040 ------- 0 0.0 3.0 74 159
+ 1.76312 3 0 ack 40 ------- 0 3.0 0.0 74 172
- 1.76312 3 0 ack 40 ------- 0 3.0 0.0 74 172
r 1.7672 0 3 tcp 2040 ------- 0 0.0 3.0 75 160
+ 1.7672 3 0 ack 40 ------- 0 3.0 0.0 75 173
- 1.7672 3 0 ack 40 ------- 0 3.0 0.0 75 173
r 1.77128 0 3 tcp 2040 ------- 0 0.0 3.0 76 161
+ 1.77128 3 0 ack 40 ------- 0 3.0 0.0 76 174
- 1.77128 3 0 ack 40 ------- 0 3.0 0.0 76 174
r 1.77536 0 3 tcp 2040 ------- 0 0.0 3.0 77 162
+ 1.77536 3 0 ack 40 ------- 0 3.0 0.0 77 175
- 1.77536 3 0 ack 40 ------- 0 3.0 0.0 77 175
r 1.77944 0 3 tcp 2040 ------- 0 0.0 3.0 78 163
+ 1.77944 3 0 ack 40 ------- 0 3.0 0.0 78 176
- 1.77944 3 0 ack 40 ------- 0 3.0 0.0 78 176
r 1.78352 0 3 tcp 2040 ------- 0 0.0 3.0 79 164
+ 1.78352 3 0 ack 40 ------- 0 3.0 0.0 79 177
- 1.78352 3 0 ack 40 ------- 0 3.0 0.0 79 177
r 1.7876 0 3 tcp 2040 ------- 0 0.0 3.0 80 165
+ 1.7876 3 0 ack 40 ------- 0 3.0 0.0 80 178
- 1.7876 3 0 ack 40 ------- 0 3.0 0.0 80 178
r 1.79168 0 3 tcp 2040 ------- 0 0.0 3.0 81 166
+ 1.79168 3 0 ack 40 ------- 0 3.0 0.0 81 179
- 1.79168 3 0 ack 40 ------- 0 3.0 0.0 81 179
r 1.79576 0 3 tcp 2040 ------- 0 0.0 3.0 82 167
+ 1.79576 3 0 ack 40 ------- 0 3.0 0.0 82 180
- 1.79576 3 0 ack 40 ------- 0 3.0 0.0 82 180
r 1.79984 0 3 tcp 2040 ------- 0 0.0 3.0 83 168
+ 1.79984 3 0 ack 40 ------- 0 3.0 0.0 83 181
- 1.79984 3 0 ack 40 ------- 0 3.0 0.0 83 181
1.7999999999999998 0.97919999999999996
r 1.85704 3 0 ack 40 ------- 0 3.0 0.0 72 169
+ 1.85704 0 3 tcp 2040 ------- 0 0.0 3.0 84 182
- 1.85704 0 3 tcp 2040 ------- 0 0.0 3.0 84 182
r 1.85704 2 1 ack 40 ------- 1 2.0 1.0 6 170
+ 1.85704 1 2 tcp 2040 ------- 1 1.0 2.0 7 183
- 1.85704 1 2 tcp 2040 ------- 1 1.0 2.0 7 183
r 1.86112 3 0 ack 40 ------- 0 3.0 0.0 73 171
+ 1.86112 0 3 tcp 2040 ------- 0 0.0 3.0 85 184
- 1.86112 0 3 tcp 2040 ------- 0 0.0 3.0 85 184
r 1.8652 3 0 ack 40 ------- 0 3.0 0.0 74 172
+ 1.8652 0 3 tcp 2040 ------- 0 0.0 3.0 86 185
- 1.8652 0 3 tcp 2040 ------- 0 0.0 3.0 86 185
r 1.86928 3 0 ack 40 ------- 0 3.0 0.0 75 173
+ 1.86928 0 3 tcp 2040 ------- 0 0.0 3.0 87 186
- 1.86928 0 3 tcp 2040 ------- 0 0.0 3.0 87 186
r 1.87336 3 0 ack 40 ------- 0 3.0 0.0 76 174
+ 1.87336 0 3 tcp 2040 ------- 0 0.0 3.0 88 187
- 1.87336 0 3 tcp 2040 ------- 0 0.0 3.0 88 187
r 1.87744 3 0 ack 40 ------- 0 3.0 0.0 77 175
+ 1.87744 0 3 tcp 2040 ------- 0 0.0 3.0 89 188
- 1.87744 0 3 tcp 2040 ------- 0 0.0 3.0 89 188
r 1.88152 3 0 ack 40 ------- 0 3.0 0.0 78 176
+ 1.88152 0 3 tcp 2040 ------- 0 0.0 3.0 90 189
- 1.88152 0 3 tcp 2040 ------- 0 0.0 3.0 90 189
r 1.8856 3 0 ack 40 ------- 0 3.0 0.0 79 177
+ 1.8856 0 3 tcp 2040 ------- 0 0.0 3.0 91 190
- 1.8856 0 3 tcp 2040 ------- 0 0.0 3.0 91 190
r 1.88968 3 0 ack 40 ------- 0 3.0 0.0 80 178
+ 1.88968 0 3 tcp 2040 ------- 0 0.0 3.0 92 191
- 1.88968 0 3 tcp 2040 ------- 0 0.0 3.0 92 191
r 1.89376 3 0 ack 40 ------- 0 3.0 0.0 81 179
+ 1.89376 0 3 tcp 2040 ------- 0 0.0 3.0 93 192
- 1.89376 0 3 tcp 2040 ------- 0 0.0 3.0 93 192
r 1.89784 3 0 ack 40 ------- 0 3.0 0.0 82 180
+ 1.89784 0 3 tcp 2040 ------- 0 0.0 3.0 94 193
- 1.89784 0 3 tcp 2040 ------- 0 0.0 3.0 94 193
r 1.90192 3 0 ack 40 ------- 0 3.0 0.0 83 181
+ 1.90192 0 3 tcp 2040 ------- 0 0.0 3.0 95 194
- 1.90192 0 3 tcp 2040 ------- 0 0.0 3.0 95 194
r 1.96312 0 3 tcp 2040 ------- 0 0.0 3.0 84 182
+ 1.96312 3 0 ack 40 ------- 0 3.0 0.0 84 195
- 1.96312 3 0 ack 40 ------- 0 3.0 0.0 84 195
r 1.96312 1 2 tcp 2040 ------- 1 1.0 2.0 7 183
+ 1.96312 2 1 ack 40 ------- 1 2.0 1.0 7 196
- 1.96312 2 1 ack 40 ------- 1 2.0 1.0 7 196
r 1.9672 0 3 tcp 2040 ------- 0 0.0 3.0 85 184
+ 1.9672 3 0 ack 40 ------- 0 3.0 0.0 85 197
- 1.9672 3 0 ack 40 ------- 0 3.0 0.0 85 197
r 1.97128 0 3 tcp 2040 ------- 0 0.0 3.0 86 185
+ 1.97128 3 0 ack 40 ------- 0 3.0 0.0 86 198
- 1.97128 3 0 ack 40 ------- 0 3.0 0.0 86 198
r 1.97536 0 3 tcp 2040 ------- 0 0.0 3.0 87 186
+ 1.97536 3 0 ack 40 ------- 0 3.0 0.0 87 199
- 1.97536 3 0 ack 40 ------- 0 3.0 0.0 87 199
r 1.97944 0 3 tcp 2040 ------- 0 0.0 3.0 88 187
+ 1.97944 3 0 ack 40 ------- 0 3.0 0.0 88 200
- 1.97944 3 0 ack 40 ------- 0 3.0 0.0 88 200
r 1.98352 0 3 tcp 2040 ------- 0 0.0 3.0 89 188
+ 1.98352 3 0 ack 40 ------- 0 3.0 0.0 89 201
- 1.98352 3 0 ack 40 ------- 0 3.0 0.0 89 201
r 1.9876 0 3 tcp 2040 ------- 0 0.0 3.0 90 189
+ 1.9876 3 0 ack 40 ------- 0 3.0 0.0 90 202
- 1.9876 3 0 ack 40 ------- 0 3.0 0.0 90 202
r 1.99168 0 3 tcp 2040 ------- 0 0.0 3.0 91 190
+ 1.99168 3 0 ack 40 ------- 0 3.0 0.0 91 203
- 1.99168 3 0 ack 40 ------- 0 3.0 0.0 91 203
r 1.99576 0 3 tcp 2040 ------- 0 0.0 3.0 92 191
+ 1.99576 3 0 ack 40 ------- 0 3.0 0.0 92 204
- 1.99576 3 0 ack 40 ------- 0 3.0 0.0 92 204
r 1.99984 0 3 tcp 2040 ------- 0 0.0 3.0 93 192
+ 1.99984 3 0 ack 40 ------- 0 3.0 0.0 93 205
- 1.99984 3 0 ack 40 ------- 0 3.0 0.0 93 205
1.9999999999999998 0.81599999999999995
r 2.00392 0 3 tcp 2040 ------- 0 0.0 3.0 94 193
+ 2.00392 3 0 ack 40 ------- 0 3.0 0.0 94 206
- 2.00392 3 0 ack 40 ------- 0 3.0 0.0 94 206
r 2.008 0 3 tcp 2040 ------- 0 0.0 3.0 95 194
+ 2.008 3 0 ack 40 ------- 0 3.0 0.0 95 207
- 2.008 3 0 ack 40 ------- 0 3.0 0.0 95 207
r 2.0652 3 0 ack 40 ------- 0 3.0 0.0 84 195
+ 2.0652 0 3 tcp 2040 ------- 0 0.0 3.0 96 208
- 2.0652 0 3 tcp 2040 ------- 0 0.0 3.0 96 208
r 2.0652 2 1 ack 40 ------- 1 2.0 1.0 7 196
+ 2.0652 1 2 tcp 2040 ------- 1 1.0 2.0 8 209
- 2.0652 1 2 tcp 2040 ------- 1 1.0 2.0 8 209
r 2.06928 3 0 ack 40 ------- 0 3.0 0.0 85 197
+ 2.06928 0 3 tcp 2040 ------- 0 0.0 3.0 97 210
- 2.06928 0 3 tcp 2040 ------- 0 0.0 3.0 97 210
r 2.07336 3 0 ack 40 ------- 0 3.0 0.0 86 198
+ 2.07336 0 3 tcp 2040 ------- 0 0.0 3.0 98 211
- 2.07336 0 3 tcp 2040 ------- 0 0.0 3.0 98 211
r 2.07744 3 0 ack 40 ------- 0 3.0 0.0 87 199
+ 2.07744 0 3 tcp 2040 ------- 0 0.0 3.0 99 212
- 2.07744 0 3 tcp 2040 ------- 0 0.0 3.0 99 212
r 2.08152 3 0 ack 40 ------- 0 3.0 0.0 88 200
+ 2.08152 0 3 tcp 2040 ------- 0 0.0 3.0 100 213
- 2.08152 0 3 tcp 2040 ------- 0 0.0 3.0 100 213
r 2.0856 3 0 ack 40 ------- 0 3.0 0.0 89 201
+ 2.0856 0 3 tcp 2040 ------- 0 0.0 3.0 101 214
- 2.0856 0 3 tcp 2040 ------- 0 0.0 3.0 101 214
r 2.08968 3 0 ack 40 ------- 0 3.0 0.0 90 202
+ 2.08968 0 3 tcp 2040 ------- 0 0.0 3.0 102 215
- 2.08968 0 3 tcp 2040 ------- 0 0.0 3.0 102 215
r 2.09376 3 0 ack 40 ------- 0 3.0 0.0 91 203
+ 2.09376 0 3 tcp 2040 ------- 0 0.0 3.0 103 216
- 2.09376 0 3 tcp 2040 ------- 0 0.0 3.0 103 216
r 2.09784 3 0 ack 40 ------- 0 3.0 0.0 92 204
+ 2.09784 0 3 tcp 2040 ------- 0 0.0 3.0 104 217
- 2.09784 0 3 tcp 2040 ------- 0 0.0 3.0 104 217
r 2.10192 3 0 ack 40 ------- 0 3.0 0.0 93 205
+ 2.10192 0 3 tcp 2040 ------- 0 0.0 3.0 105 218